ITEM: TIMESTEP
100000
ITEM: NUMBER OF ATOMS
8
ITEM: BOX BOUNDS pp pp pp
-5.0000000000000000e+01 5.0000000000000000e+01
-5.0000000000000000e+01 5.0000000000000000e+01
-5.0000000000000000e+01 5.0000000000000000e+01
ITEM: ATOMS id mol type x y z xu yu zu 
1 1 2 -1.82793 -3.32928 7.9203 -1.82793 -3.32928 7.9203 
2 1 2 -2.63723 -3.44986 7.52509 -2.63723 -3.44986 7.52509 
3 1 2 -3.39533 -3.72586 6.94202 -3.39533 -3.72586 6.94202 
4 1 2 -3.85231 -3.95745 6.07386 -3.85231 -3.95745 6.07386 
5 1 1 -3.68819 -3.24741 5.39534 -3.68819 -3.24741 5.39534 
6 1 1 -4.3343 -2.42699 5.48532 -4.3343 -2.42699 5.48532 
7 1 1 -5.271 -2.10087 5.84203 -5.271 -2.10087 5.84203 
8 1 1 -4.55486 -2.10652 6.60197 -4.55486 -2.10652 6.60197 
ITEM: TIMESTEP
200000
ITEM: NUMBER OF ATOMS
8
ITEM: BOX BOUNDS pp pp pp
-5.0000000000000000e+01 5.0000000000000000e+01
-5.0000000000000000e+01 5.0000000000000000e+01
-5.0000000000000000e+01 5.0000000000000000e+01
ITEM: ATOMS id mol type x y z xu yu zu 
1 1 2 -0.872622 0.389929 1.517 -0.872622 0.389929 1.517 
2 1 2 -1.01696 -0.0938399 2.30763 -1.01696 -0.0938399 2.30763 
3 1 2 -0.886954 0.094827 3.32552 -0.886954 0.094827 3.32552 
4 1 2 -0.779065 1.13692 3.02115 -0.779065 1.13692 3.02115 
5 1 1 -0.207605 1.91188 2.88618 -0.207605 1.91188 2.88618 
6 1 1 0.231037 1.28343 3.57754 0.231037 1.28343 3.57754 
7 1 1 0.0311562 1.82629 4.47647 0.0311562 1.82629 4.47647 
8 1 1 -0.974294 1.82036 4.76488 -0.974294 1.82036 4.76488 
ITEM: TIMESTEP
300000
ITEM: NUMBER OF ATOMS
8
ITEM: BOX BOUNDS pp pp pp
-5.0000000000000000e+01 5.0000000000000000e+01
-5.0000000000000000e+01 5.0000000000000000e+01
-5.0000000000000000e+01 5.0000000000000000e+01
ITEM: ATOMS id mol type x y z xu yu zu 
1 1 2 -1.07681 -1.3661 1.32635 -1.07681 -1.3661 1.32635 
2 1 2 -1.08776 -1.13387 2.39559 -1.08776 -1.13387 2.39559 
3 1 2 -0.431085 -1.9385 1.96107 -0.431085 -1.9385 1.96107 
4 1 2 -0.824863 -2.87087 1.83804 -0.824863 -2.87087 1.83804 
5 1 1 -1.25123 -2.27718 2.58114 -1.25123 -2.27718 2.58114 
6 1 1 -1.42581 -3.21238 2.89522 -1.42581 -3.21238 2.89522 
7 1 1 -1.10482 -4.14562 2.59704 -1.10482 -4.14562 2.59704 
8 1 1 -0.293527 -3.93854 1.9879 -0.293527 -3.93854 1.9879 
ITEM: TIMESTEP
400000
ITEM: NUMBER OF ATOMS
8
ITEM: BOX BOUNDS pp pp pp
-5.0000000000000000e+01 5.0000000000000000e+01
-5.0000000000000000e+01 5.0000000000000000e+01
-5.0000000000000000e+01 5.0000000000000000e+01
ITEM: ATOMS id mol type x y z xu yu zu 
1 1 2 -4.91206 3.20502 -2.82862 -4.91206 3.20502 -2.82862 
2 1 2 -5.36185 2.40341 -3.27992 -5.36185 2.40341 -3.27992 
3 1 2 -5.95804 1.903 -2.64481 -5.95804 1.903 -2.64481 
4 1 2 -6.94202 1.72373 -2.23377 -6.94202 1.72373 -2.23377 
5 1 1 -7.52608 1.75283 -3.00373 -7.52608 1.75283 -3.00373 
6 1 1 -7.27368 2.801 -3.10546 -7.27368 2.801 -3.10546 
7 1 1 -8.04081 3.22607 -3.55107 -8.04081 3.22607 -3.55107 
8 1 1 -8.05721 3.34314 -2.67105 -8.05721 3.34314 -2.67105 
ITEM: TIMESTEP
500000
ITEM: NUMBER OF ATOMS
8
ITEM: BOX BOUNDS pp pp pp
-5.0000000000000000e+01 5.0000000000000000e+01
-5.0000000000000000e+01 5.0000000000000000e+01
-5.0000000000000000e+01 5.0000000000000000e+01
ITEM: ATOMS id mol type x y z xu yu zu 
1 1 2 -3.89275 4.88006 -6.82248 -3.89275 4.88006 -6.82248 
2 1 2 -3.70861 4.6429 -5.78669 -3.70861 4.6429 -5.78669 
3 1 2 -2.69629 4.84759 -6.07802 -2.69629 4.84759 -6.07802 
4 1 2 -2.48299 5.39268 -5.24733 -2.48299 5.39268 -5.24733 
5 1 1 -3.07153 5.97628 -4.7234 -3.07153 5.97628 -4.7234 
6 1 1 -2.95327 6.65652 -3.97782 -2.95327 6.65652 -3.97782 
7 1 1 -3.58873 6.94108 -4.69401 -3.58873 6.94108 -4.69401 
8 1 1 -3.87214 7.16022 -3.85506 -3.87214 7.16022 -3.85506 
ITEM: TIMESTEP
600000
ITEM: NUMBER OF ATOMS
8
ITEM: BOX BOUNDS pp pp pp
-5.0000000000000000e+01 5.0000000000000000e+01
-5.0000000000000000e+01 5.0000000000000000e+01
-5.0000000000000000e+01 5.0000000000000000e+01
ITEM: ATOMS id mol type x y z xu yu zu 
1 1 2 -3.80407 10.4478 -9.28993 -3.80407 10.4478 -9.28993 
2 1 2 -4.50134 11.2013 -8.80969 -4.50134 11.2013 -8.80969 
3 1 2 -4.60182 10.9642 -7.89095 -4.60182 10.9642 -7.89095 
4 1 2 -3.78522 11.2462 -7.27624 -3.78522 11.2462 -7.27624 
5 1 1 -4.59868 10.9259 -6.67508 -4.59868 10.9259 -6.67508 
6 1 1 -5.45588 10.6232 -6.95613 -5.45588 10.6232 -6.95613 
7 1 1 -5.6849 9.60068 -7.10568 -5.6849 9.60068 -7.10568 
8 1 1 -4.93904 9.58887 -6.42503 -4.93904 9.58887 -6.42503 
ITEM: TIMESTEP
700000
ITEM: NUMBER OF ATOMS
8
ITEM: BOX BOUNDS pp pp pp
-5.0000000000000000e+01 5.0000000000000000e+01
-5.0000000000000000e+01 5.0000000000000000e+01
-5.0000000000000000e+01 5.0000000000000000e+01
ITEM: ATOMS id mol type x y z xu yu zu 
1 1 2 -2.34687 14.0369 -3.47562 -2.34687 14.0369 -3.47562 
2 1 2 -2.12701 14.273 -2.45599 -2.12701 14.273 -2.45599 
3 1 2 -1.73132 15.3066 -2.90718 -1.73132 15.3066 -2.90718 
4 1 2 -0.982151 14.7767 -3.37711 -0.982151 14.7767 -3.37711 
5 1 1 -0.27393 14.827 -3.84866 -0.27393 14.827 -3.84866 
6 1 1 0.785174 14.6116 -3.83884 0.785174 14.6116 -3.83884 
7 1 1 1.08123 14.9458 -4.75249 1.08123 14.9458 -4.75249 
8 1 1 1.69325 14.2167 -4.65771 1.69325 14.2167 -4.65771 
ITEM: TIMESTEP
800000
ITEM: NUMBER OF ATOMS
8
ITEM: BOX BOUNDS pp pp pp
-5.0000000000000000e+01 5.0000000000000000e+01
-5.0000000000000000e+01 5.0000000000000000e+01
-5.0000000000000000e+01 5.0000000000000000e+01
ITEM: ATOMS id mol type x y z xu yu zu 
1 1 2 -0.371649 14.5045 -11.5593 -0.371649 14.5045 -11.5593 
2 1 2 -0.541178 14.6158 -10.5755 -0.541178 14.6158 -10.5755 
3 1 2 -1.0652 15.1329 -9.86762 -1.0652 15.1329 -9.86762 
4 1 2 -0.301578 14.7247 -9.23535 -0.301578 14.7247 -9.23535 
5 1 1 -0.678441 15.1692 -8.62249 -0.678441 15.1692 -8.62249 
6 1 1 -0.75191 15.4472 -7.59464 -0.75191 15.4472 -7.59464 
7 1 1 -1.17542 15.7768 -6.70109 -1.17542 15.7768 -6.70109 
8 1 1 -1.97439 16.2887 -6.6158 -1.97439 16.2887 -6.6158 
ITEM: TIMESTEP
900000
ITEM: NUMBER OF ATOMS
8
ITEM: BOX BOUNDS pp pp pp
-5.0000000000000000e+01 5.0000000000000000e+01
-5.0000000000000000e+01 5.0000000000000000e+01
-5.0000000000000000e+01 5.0000000000000000e+01
ITEM: ATOMS id mol type x y z xu yu zu 
1 1 2 5.06176 10.8795 -11.831 5.06176 10.8795 -11.831 
2 1 2 5.37733 11.7546 -12.2222 5.37733 11.7546 -12.2222 
3 1 2 6.35592 11.7925 -11.8006 6.35592 11.7925 -11.8006 
4 1 2 7.02422 11.2071 -12.0971 7.02422 11.2071 -12.0971 
5 1 1 7.425 11.0638 -12.9516 7.425 11.0638 -12.9516 
6 1 1 8.36061 11.1967 -12.7276 8.36061 11.1967 -12.7276 
7 1 1 8.20784 11.0665 -13.7165 8.20784 11.0665 -13.7165 
8 1 1 8.22487 10.495 -14.3375 8.22487 10.495 -14.3375 
ITEM: TIMESTEP
1000000
ITEM: NUMBER OF ATOMS
8
ITEM: BOX BOUNDS pp pp pp
-5.0000000000000000e+01 5.0000000000000000e+01
-5.0000000000000000e+01 5.0000000000000000e+01
-5.0000000000000000e+01 5.0000000000000000e+01
ITEM: ATOMS id mol type x y z xu yu zu 
1 1 2 14.591 15.5083 -10.6298 14.591 15.5083 -10.6298 
2 1 2 13.6667 15.6145 -10.5903 13.6667 15.6145 -10.5903 
3 1 2 13.5245 15.1872 -9.67472 13.5245 15.1872 -9.67472 
4 1 2 13.2572 14.4623 -10.4474 13.2572 14.4623 -10.4474 
5 1 1 13.5695 14.4471 -11.3703 13.5695 14.4471 -11.3703 
6 1 1 12.7275 13.8128 -11.3389 12.7275 13.8128 -11.3389 
7 1 1 12.6115 12.7737 -11.1172 12.6115 12.7737 -11.1172 
8 1 1 11.9028 12.1128 -11.1117 11.9028 12.1128 -11.1117 
ITEM: TIMESTEP
1100000
ITEM: NUMBER OF ATOMS
8
ITEM: BOX BOUNDS pp pp pp
-5.0000000000000000e+01 5.0000000000000000e+01
-5.0000000000000000e+01 5.0000000000000000e+01
-5.0000000000000000e+01 5.0000000000000000e+01
ITEM: ATOMS id mol type x y z xu yu zu 
1 1 2 19.6226 8.73301 -21.6386 19.6226 8.73301 -21.6386 
2 1 2 18.5574 8.75499 -21.2153 18.5574 8.75499 -21.2153 
3 1 2 18.4706 9.33363 -22.1594 18.4706 9.33363 -22.1594 
4 1 2 18.8394 10.2881 -22.3168 18.8394 10.2881 -22.3168 
5 1 1 19.7178 10.3382 -22.6682 19.7178 10.3382 -22.6682 
6 1 1 19.452 10.8869 -23.4461 19.452 10.8869 -23.4461 
7 1 1 19.0587 10.3703 -24.2092 19.0587 10.3703 -24.2092 
8 1 1 19.4387 10.9856 -25.1006 19.4387 10.9856 -25.1006 
ITEM: TIMESTEP
1200000
ITEM: NUMBER OF ATOMS
8
ITEM: BOX BOUNDS pp pp pp
-5.0000000000000000e+01 5.0000000000000000e+01
-5.0000000000000000e+01 5.0000000000000000e+01
-5.0000000000000000e+01 5.0000000000000000e+01
ITEM: ATOMS id mol type x y z xu yu zu 
1 1 2 19.0454 5.27298 -14.3721 19.0454 5.27298 -14.3721 
2 1 2 19.6391 5.85212 -14.6452 19.6391 5.85212 -14.6452 
3 1 2 20.052 5.02068 -14.1503 20.052 5.02068 -14.1503 
4 1 2 19.5996 4.57396 -13.3965 19.5996 4.57396 -13.3965 
5 1 1 18.9156 3.71122 -13.903 18.9156 3.71122 -13.903 
6 1 1 18.5186 4.01956 -14.7545 18.5186 4.01956 -14.7545 
7 1 1 17.8781 3.50184 -14.4165 17.8781 3.50184 -14.4165 
8 1 1 17.3641 3.59545 -13.4681 17.3641 3.59545 -13.4681 
ITEM: TIMESTEP
1300000
ITEM: NUMBER OF ATOMS
8
ITEM: BOX BOUNDS pp pp pp
-5.0000000000000000e+01 5.0000000000000000e+01
-5.0000000000000000e+01 5.0000000000000000e+01
-5.0000000000000000e+01 5.0000000000000000e+01
ITEM: ATOMS id mol type x y z xu yu zu 
1 1 2 23.5097 -0.657838 -10.5848 23.5097 -0.657838 -10.5848 
2 1 2 22.5737 -0.960482 -10.1556 22.5737 -0.960482 -10.1556 
3 1 2 23.1041 -1.8192 -10.638 23.1041 -1.8192 -10.638 
4 1 2 22.4788 -2.43267 -10.4631 22.4788 -2.43267 -10.4631 
5 1 1 21.6093 -1.91617 -9.90833 21.6093 -1.91617 -9.90833 
6 1 1 20.639 -2.20668 -9.59985 20.639 -2.20668 -9.59985 
7 1 1 21.2559 -3.0826 -9.26378 21.2559 -3.0826 -9.26378 
8 1 1 20.8094 -3.79763 -9.7157 20.8094 -3.79763 -9.7157 
ITEM: TIMESTEP
1400000
ITEM: NUMBER OF ATOMS
8
ITEM: BOX BOUNDS pp pp pp
-5.0000000000000000e+01 5.0000000000000000e+01
-5.0000000000000000e+01 5.0000000000000000e+01
-5.0000000000000000e+01 5.0000000000000000e+01
ITEM: ATOMS id mol type x y z xu yu zu 
1 1 2 18.79 -5.20337 1.52867 18.79 -5.20337 1.52867 
2 1 2 18.2746 -4.85353 0.801025 18.2746 -4.85353 0.801025 
3 1 2 19.22 -4.9668 0.454393 19.22 -4.9668 0.454393 
4 1 2 19.7183 -4.79706 -0.382093 19.7183 -4.79706 -0.382093 
5 1 1 18.7714 -4.5815 -0.606466 18.7714 -4.5815 -0.606466 
6 1 1 19.0781 -5.31867 -1.22166 19.0781 -5.31867 -1.22166 
7 1 1 18.6391 -5.93759 -0.649925 18.6391 -5.93759 -0.649925 
8 1 1 19.4953 -5.85555 -0.100494 19.4953 -5.85555 -0.100494 
ITEM: TIMESTEP
1500000
ITEM: NUMBER OF ATOMS
8
ITEM: BOX BOUNDS pp pp pp
-5.0000000000000000e+01 5.0000000000000000e+01
-5.0000000000000000e+01 5.0000000000000000e+01
-5.0000000000000000e+01 5.0000000000000000e+01
ITEM: ATOMS id mol type x y z xu yu zu 
1 1 2 24.8241 -7.1817 3.63227 24.8241 -7.1817 3.63227 
2 1 2 24.9934 -6.43535 4.25194 24.9934 -6.43535 4.25194 
3 1 2 24.2352 -6.63013 5.06313 24.2352 -6.63013 5.06313 
4 1 2 24.4662 -7.54099 5.50354 24.4662 -7.54099 5.50354 
5 1 1 23.6794 -7.86844 5.81846 23.6794 -7.86844 5.81846 
6 1 1 24.1052 -7.81195 6.73923 24.1052 -7.81195 6.73923 
7 1 1 24.8369 -7.0873 6.79494 24.8369 -7.0873 6.79494 
8 1 1 25.6095 -7.62422 6.63395 25.6095 -7.62422 6.63395 
ITEM: TIMESTEP
1600000
ITEM: NUMBER OF ATOMS
8
ITEM: BOX BOUNDS pp pp pp
-5.0000000000000000e+01 5.0000000000000000e+01
-5.0000000000000000e+01 5.0000000000000000e+01
-5.0000000000000000e+01 5.0000000000000000e+01
ITEM: ATOMS id mol type x y z xu yu zu 
1 1 2 26.9557 -12.5443 7.52301 26.9557 -12.5443 7.52301 
2 1 2 26.3057 -12.8642 6.75973 26.3057 -12.8642 6.75973 
3 1 2 26.7536 -12.6223 5.6633 26.7536 -12.6223 5.6633 
4 1 2 26.3858 -12.837 4.86692 26.3858 -12.837 4.86692 
5 1 1 27.3464 -13.0149 4.35163 27.3464 -13.0149 4.35163 
6 1 1 27.8108 -12.0852 4.18247 27.8108 -12.0852 4.18247 
7 1 1 28.7422 -12.2404 3.70191 28.7422 -12.2404 3.70191 
8 1 1 29.203 -13.1537 3.44449 29.203 -13.1537 3.44449 
ITEM: TIMESTEP
1700000
ITEM: NUMBER OF ATOMS
8
ITEM: BOX BOUNDS pp pp pp
-5.0000000000000000e+01 5.0000000000000000e+01
-5.0000000000000000e+01 5.0000000000000000e+01
-5.0000000000000000e+01 5.0000000000000000e+01
ITEM: ATOMS id mol type x y z xu yu zu 
1 1 2 33.1483 -7.27939 7.56615 33.1483 -7.27939 7.56615 
2 1 2 32.4892 -6.56173 7.73486 32.4892 -6.56173 7.73486 
3 1 2 32.4837 -5.79449 7.2289 32.4837 -5.79449 7.2289 
4 1 2 32.3717 -4.95678 6.54652 32.3717 -4.95678 6.54652 
5 1 1 31.8844 -5.56972 6.15148 31.8844 -5.56972 6.15148 
6 1 1 31.134 -6.30713 5.73206 31.134 -6.30713 5.73206 
7 1 1 30.2651 -6.34689 5.92754 30.2651 -6.34689 5.92754 
8 1 1 30.2558 -7.01712 4.97124 30.2558 -7.01712 4.97124 
ITEM: TIMESTEP
1800000
ITEM: NUMBER OF ATOMS
8
ITEM: BOX BOUNDS pp pp pp
-5.0000000000000000e+01 5.0000000000000000e+01
-5.0000000000000000e+01 5.0000000000000000e+01
-5.0000000000000000e+01 5.0000000000000000e+01
ITEM: ATOMS id mol type x y z xu yu zu 
1 1 2 34.1535 -8.77687 2.2833 34.1535 -8.77687 2.2833 
2 1 2 33.4416 -9.22694 2.28798 33.4416 -9.22694 2.28798 
3 1 2 32.9426 -9.63032 3.09312 32.9426 -9.63032 3.09312 
4 1 2 33.3253 -9.77253 4.02556 33.3253 -9.77253 4.02556 
5 1 1 32.6193 -9.47971 4.59154 32.6193 -9.47971 4.59154 
6 1 1 32.824 -9.63899 5.65967 32.824 -9.63899 5.65967 
7 1 1 32.0936 -10.255 5.31167 32.0936 -10.255 5.31167 
8 1 1 31.1554 -10.6401 5.00088 31.1554 -10.6401 5.00088 
ITEM: TIMESTEP
1900000
ITEM: NUMBER OF ATOMS
8
ITEM: BOX BOUNDS pp pp pp
-5.0000000000000000e+01 5.0000000000000000e+01
-5.0000000000000000e+01 5.0000000000000000e+01
-5.0000000000000000e+01 5.0000000000000000e+01
ITEM: ATOMS id mol type x y z xu yu zu 
1 1 2 29.135 -10.7327 8.01977 29.135 -10.7327 8.01977 
2 1 2 29.2903 -11.4082 8.7994 29.2903 -11.4082 8.7994 
3 1 2 28.4439 -11.7205 9.34934 28.4439 -11.7205 9.34934 
4 1 2 28.5349 -10.9297 9.87575 28.5349 -10.9297 9.87575 
5 1 1 28.3716 -9.95019 9.90548 28.3716 -9.95019 9.90548 
6 1 1 27.9765 -9.30238 10.5711 27.9765 -9.30238 10.5711 
7 1 1 27.5111 -9.48145 11.4616 27.5111 -9.48145 11.4616 
8 1 1 27.4451 -9.97973 12.2618 27.4451 -9.97973 12.2618 
ITEM: TIMESTEP
2000000
ITEM: NUMBER OF ATOMS
8
ITEM: BOX BOUNDS pp pp pp
-5.0000000000000000e+01 5.0000000000000000e+01
-5.0000000000000000e+01 5.0000000000000000e+01
-5.0000000000000000e+01 5.0000000000000000e+01
ITEM: ATOMS id mol type x y z xu yu zu 
1 1 2 25.8387 -15.459 20.3623 25.8387 -15.459 20.3623 
2 1 2 26.0134 -16.2917 21.0138 26.0134 -16.2917 21.0138 
3 1 2 26.2514 -17.1444 21.6694 26.2514 -17.1444 21.6694 
4 1 2 26.9522 -17.9078 21.9651 26.9522 -17.9078 21.9651 
5 1 1 27.4653 -17.1669 21.6019 27.4653 -17.1669 21.6019 
6 1 1 27.9282 -16.5674 20.7637 27.9282 -16.5674 20.7637 
7 1 1 28.9419 -16.3828 20.7885 28.9419 -16.3828 20.7885 
8 1 1 29.1624 -16.7213 19.8799 29.1624 -16.7213 19.8799 
ITEM: TIMESTEP
2100000
ITEM: NUMBER OF ATOMS
8
ITEM: BOX BOUNDS pp pp pp
-5.0000000000000000e+01 5.0000000000000000e+01
-5.0000000000000000e+01 5.0000000000000000e+01
-5.0000000000000000e+01 5.0000000000000000e+01
ITEM: ATOMS id mol type x y z xu yu zu 
1 1 2 28.0387 -9.98814 32.9938 28.0387 -9.98814 32.9938 
2 1 2 27.7537 -10.9009 32.9589 27.7537 -10.9009 32.9589 
3 1 2 26.8757 -10.6575 32.7319 26.8757 -10.6575 32.7319 
4 1 2 26.6234 -9.71242 32.7083 26.6234 -9.71242 32.7083 
5 1 1 26.4112 -10.1603 31.7936 26.4112 -10.1603 31.7936 
6 1 1 25.6795 -9.68902 32.1486 25.6795 -9.68902 32.1486 
7 1 1 24.9634 -9.97971 31.5385 24.9634 -9.97971 31.5385 
8 1 1 24.262 -9.17278 31.4618 24.262 -9.17278 31.4618 
ITEM: TIMESTEP
2200000
ITEM: NUMBER OF ATOMS
8
ITEM: BOX BOUNDS pp pp pp
-5.0000000000000000e+01 5.0000000000000000e+01
-5.0000000000000000e+01 5.0000000000000000e+01
-5.0000000000000000e+01 5.0000000000000000e+01
ITEM: ATOMS id mol type x y z xu yu zu 
1 1 2 30.3859 3.26964 39.1062 30.3859 3.26964 39.1062 
2 1 2 29.8298 2.6004 38.7348 29.8298 2.6004 38.7348 
3 1 2 30.2178 2.76764 37.8716 30.2178 2.76764 37.8716 
4 1 2 30.8511 2.27137 38.5499 30.8511 2.27137 38.5499 
5 1 1 31.8881 2.04365 38.8494 31.8881 2.04365 38.8494 
6 1 1 32.2552 1.2252 38.3174 32.2552 1.2252 38.3174 
7 1 1 31.3502 1.1693 38.2958 31.3502 1.1693 38.2958 
8 1 1 31.6503 0.374592 38.2609 31.6503 0.374592 38.2609 
ITEM: TIMESTEP
2300000
ITEM: NUMBER OF ATOMS
8
ITEM: BOX BOUNDS pp pp pp
-5.0000000000000000e+01 5.0000000000000000e+01
-5.0000000000000000e+01 5.0000000000000000e+01
-5.0000000000000000e+01 5.0000000000000000e+01
ITEM: ATOMS id mol type x y z xu yu zu 
1 1 2 36.894 1.34104 30.0075 36.894 1.34104 30.0075 
2 1 2 36.5883 1.02392 29.0879 36.5883 1.02392 29.0879 
3 1 2 35.8199 0.962139 28.4481 35.8199 0.962139 28.4481 
4 1 2 35.4489 1.90149 28.7865 35.4489 1.90149 28.7865 
5 1 1 35.7798 1.80075 27.7829 35.7798 1.80075 27.7829 
6 1 1 36.1263 2.40257 27.0019 36.1263 2.40257 27.0019 
7 1 1 35.2295 2.45691 26.92 35.2295 2.45691 26.92 
8 1 1 35.0024 3.313 27.3166 35.0024 3.313 27.3166 
ITEM: TIMESTEP
2400000
ITEM: NUMBER OF ATOMS
8
ITEM: BOX BOUNDS pp pp pp
-5.0000000000000000e+01 5.0000000000000000e+01
-5.0000000000000000e+01 5.0000000000000000e+01
-5.0000000000000000e+01 5.0000000000000000e+01
ITEM: ATOMS id mol type x y z xu yu zu 
1 1 2 39.5705 4.4155 37.1015 39.5705 4.4155 37.1015 
2 1 2 39.6769 3.4912 36.6987 39.6769 3.4912 36.6987 
3 1 2 39.5482 3.03849 35.7751 39.5482 3.03849 35.7751 
4 1 2 38.9237 2.31059 35.5424 38.9237 2.31059 35.5424 
5 1 1 38.2308 1.64314 35.3769 38.2308 1.64314 35.3769 
6 1 1 37.5598 1.27449 36.168 37.5598 1.27449 36.168 
7 1 1 38.2795 1.58445 36.8081 38.2795 1.58445 36.8081 
8 1 1 38.283 1.17374 37.6134 38.283 1.17374 37.6134 
ITEM: TIMESTEP
2500000
ITEM: NUMBER OF ATOMS
8
ITEM: BOX BOUNDS pp pp pp
-5.0000000000000000e+01 5.0000000000000000e+01
-5.0000000000000000e+01 5.0000000000000000e+01
-5.0000000000000000e+01 5.0000000000000000e+01
ITEM: ATOMS id mol type x y z xu yu zu 
1 1 2 30.0538 2.1773 30.3064 30.0538 2.1773 30.3064 
2 1 2 29.3523 1.81497 29.66 29.3523 1.81497 29.66 
3 1 2 29.6191 2.81825 29.4402 29.6191 2.81825 29.4402 
4 1 2 29.7949 3.92675 29.4736 29.7949 3.92675 29.4736 
5 1 1 30.1395 3.6512 28.6836 30.1395 3.6512 28.6836 
6 1 1 31.2313 3.61805 28.7075 31.2313 3.61805 28.7075 
7 1 1 30.9984 2.58692 28.3863 30.9984 2.58692 28.3863 
8 1 1 30.3221 1.89736 28.1304 30.3221 1.89736 28.1304 
ITEM: TIMESTEP
2600000
ITEM: NUMBER OF ATOMS
8
ITEM: BOX BOUNDS pp pp pp
-5.0000000000000000e+01 5.0000000000000000e+01
-5.0000000000000000e+01 5.0000000000000000e+01
-5.0000000000000000e+01 5.0000000000000000e+01
ITEM: ATOMS id mol type x y z xu yu zu 
1 1 2 33.3053 1.26228 36.5079 33.3053 1.26228 36.5079 
2 1 2 33.3978 1.82394 35.691 33.3978 1.82394 35.691 
3 1 2 32.3582 1.79395 35.8329 32.3582 1.79395 35.8329 
4 1 2 31.5168 1.69077 35.1591 31.5168 1.69077 35.1591 
5 1 1 31.9244 0.748956 34.9881 31.9244 0.748956 34.9881 
6 1 1 32.3289 -0.0106528 35.5462 32.3289 -0.0106528 35.5462 
7 1 1 32.27 -0.509652 36.2656 32.27 -0.509652 36.2656 
8 1 1 32.9769 -0.183005 36.8576 32.9769 -0.183005 36.8576 
ITEM: TIMESTEP
2700000
ITEM: NUMBER OF ATOMS
8
ITEM: BOX BOUNDS pp pp pp
-5.0000000000000000e+01 5.0000000000000000e+01
-5.0000000000000000e+01 5.0000000000000000e+01
-5.0000000000000000e+01 5.0000000000000000e+01
ITEM: ATOMS id mol type x y z xu yu zu 
1 1 2 38.1351 -2.68281 35.4107 38.1351 -2.68281 35.4107 
2 1 2 37.704 -3.30665 36.0011 37.704 -3.30665 36.0011 
3 1 2 38.1397 -2.86127 36.715 38.1397 -2.86127 36.715 
4 1 2 38.279 -2.12655 37.4784 38.279 -2.12655 37.4784 
5 1 1 37.8531 -2.74393 38.2085 37.8531 -2.74393 38.2085 
6 1 1 37.1224 -2.87158 38.7901 37.1224 -2.87158 38.7901 
7 1 1 36.1731 -3.06325 38.3778 36.1731 -3.06325 38.3778 
8 1 1 36.0186 -2.54089 37.5483 36.0186 -2.54089 37.5483 
ITEM: TIMESTEP
2800000
ITEM: NUMBER OF ATOMS
8
ITEM: BOX BOUNDS pp pp pp
-5.0000000000000000e+01 5.0000000000000000e+01
-5.0000000000000000e+01 5.0000000000000000e+01
-5.0000000000000000e+01 5.0000000000000000e+01
ITEM: ATOMS id mol type x y z xu yu zu 
1 1 2 35.5449 -6.94633 34.4961 35.5449 -6.94633 34.4961 
2 1 2 35.9758 -6.3591 35.1163 35.9758 -6.3591 35.1163 
3 1 2 36.944 -6.71863 35.2516 36.944 -6.71863 35.2516 
4 1 2 37.3651 -5.94527 35.8643 37.3651 -5.94527 35.8643 
5 1 1 36.9917 -5.06815 35.6947 36.9917 -5.06815 35.6947 
6 1 1 36.0196 -5.09344 35.1792 36.0196 -5.09344 35.1792 
7 1 1 35.6044 -4.35485 35.4125 35.6044 -4.35485 35.4125 
8 1 1 35.4563 -3.80859 34.5159 35.4563 -3.80859 34.5159 
ITEM: TIMESTEP
2900000
ITEM: NUMBER OF ATOMS
8
ITEM: BOX BOUNDS pp pp pp
-5.0000000000000000e+01 5.0000000000000000e+01
-5.0000000000000000e+01 5.0000000000000000e+01
-5.0000000000000000e+01 5.0000000000000000e+01
ITEM: ATOMS id mol type x y z xu yu zu 
1 1 2 34.6821 -2.49614 30.5607 34.6821 -2.49614 30.5607 
2 1 2 35.2089 -2.31967 29.6401 35.2089 -2.31967 29.6401 
3 1 2 36.1201 -1.98423 29.2763 36.1201 -1.98423 29.2763 
4 1 2 35.8184 -1.30669 29.8521 35.8184 -1.30669 29.8521 
5 1 1 35.5168 -1.21805 30.773 35.5168 -1.21805 30.773 
6 1 1 36.2529 -0.643759 30.991 36.2529 -0.643759 30.991 
7 1 1 35.5417 -0.049841 31.5316 35.5417 -0.049841 31.5316 
8 1 1 36.1578 0.359067 32.1626 36.1578 0.359067 32.1626 
ITEM: TIMESTEP
3000000
ITEM: NUMBER OF ATOMS
8
ITEM: BOX BOUNDS pp pp pp
-5.0000000000000000e+01 5.0000000000000000e+01
-5.0000000000000000e+01 5.0000000000000000e+01
-5.0000000000000000e+01 5.0000000000000000e+01
ITEM: ATOMS id mol type x y z xu yu zu 
1 1 2 36.6484 -0.946217 33.2252 36.6484 -0.946217 33.2252 
2 1 2 37.0149 -1.09095 32.3077 37.0149 -1.09095 32.3077 
3 1 2 36.4024 -0.867424 31.4676 36.4024 -0.867424 31.4676 
4 1 2 35.9528 -0.825371 32.2882 35.9528 -0.825371 32.2882 
5 1 1 35.4279 -1.49095 32.7706 35.4279 -1.49095 32.7706 
6 1 1 35.3455 -2.29174 33.4221 35.3455 -2.29174 33.4221 
7 1 1 34.8544 -2.88868 34.1799 34.8544 -2.88868 34.1799 
8 1 1 35.1534 -3.44141 34.953 35.1534 -3.44141 34.953 
ITEM: TIMESTEP
3100000
ITEM: NUMBER OF ATOMS
8
ITEM: BOX BOUNDS pp pp pp
-5.0000000000000000e+01 5.0000000000000000e+01
-5.0000000000000000e+01 5.0000000000000000e+01
-5.0000000000000000e+01 5.0000000000000000e+01
ITEM: ATOMS id mol type x y z xu yu zu 
1 1 2 34.8219 3.43137 30.3328 34.8219 3.43137 30.3328 
2 1 2 35.6441 3.39647 31.0739 35.6441 3.39647 31.0739 
3 1 2 34.73 3.45097 31.4621 34.73 3.45097 31.4621 
4 1 2 34.3476 3.28551 32.3736 34.3476 3.28551 32.3736 
5 1 1 34.3679 3.70522 33.2138 34.3679 3.70522 33.2138 
6 1 1 33.5068 3.26884 33.6356 33.5068 3.26884 33.6356 
7 1 1 33.4505 2.34052 34.1449 33.4505 2.34052 34.1449 
8 1 1 33.3103 2.48496 35.1436 33.3103 2.48496 35.1436 
ITEM: TIMESTEP
3200000
ITEM: NUMBER OF ATOMS
8
ITEM: BOX BOUNDS pp pp pp
-5.0000000000000000e+01 5.0000000000000000e+01
-5.0000000000000000e+01 5.0000000000000000e+01
-5.0000000000000000e+01 5.0000000000000000e+01
ITEM: ATOMS id mol type x y z xu yu zu 
1 1 2 35.175 9.32477 26.182 35.175 9.32477 26.182 
2 1 2 35.0406 9.34683 27.2677 35.0406 9.34683 27.2677 
3 1 2 34.0653 9.15285 27.6834 34.0653 9.15285 27.6834 
4 1 2 34.5431 8.27589 27.8203 34.5431 8.27589 27.8203 
5 1 1 33.8501 7.80264 27.9864 33.8501 7.80264 27.9864 
6 1 1 32.9108 8.06484 28.1738 32.9108 8.06484 28.1738 
7 1 1 32.2108 8.24459 27.3606 32.2108 8.24459 27.3606 
8 1 1 32.7967 9.08809 27.3637 32.7967 9.08809 27.3637 
ITEM: TIMESTEP
3300000
ITEM: NUMBER OF ATOMS
8
ITEM: BOX BOUNDS pp pp pp
-5.0000000000000000e+01 5.0000000000000000e+01
-5.0000000000000000e+01 5.0000000000000000e+01
-5.0000000000000000e+01 5.0000000000000000e+01
ITEM: ATOMS id mol type x y z xu yu zu 
1 1 2 33.2412 12.8774 17.8763 33.2412 12.8774 17.8763 
2 1 2 33.5727 12.5811 17.021 33.5727 12.5811 17.021 
3 1 2 34.2393 12.699 16.4503 34.2393 12.699 16.4503 
4 1 2 34.4708 13.6532 15.9872 34.4708 13.6532 15.9872 
5 1 1 33.9556 14.3646 15.6438 33.9556 14.3646 15.6438 
6 1 1 33.9211 15.3617 15.3383 33.9211 15.3617 15.3383 
7 1 1 34.4265 16.1441 14.925 34.4265 16.1441 14.925 
8 1 1 35.1414 16.303 14.4263 35.1414 16.303 14.4263 
ITEM: TIMESTEP
3400000
ITEM: NUMBER OF ATOMS
8
ITEM: BOX BOUNDS pp pp pp
-5.0000000000000000e+01 5.0000000000000000e+01
-5.0000000000000000e+01 5.0000000000000000e+01
-5.0000000000000000e+01 5.0000000000000000e+01
ITEM: ATOMS id mol type x y z xu yu zu 
1 1 2 24.0241 22.3903 13.9773 24.0241 22.3903 13.9773 
2 1 2 24.0483 22.05 13.0055 24.0483 22.05 13.0055 
3 1 2 24.8611 21.719 13.2071 24.8611 21.719 13.2071 
4 1 2 25.1596 22.4848 13.9003 25.1596 22.4848 13.9003 
5 1 1 24.8599 23.1008 14.6408 24.8599 23.1008 14.6408 
6 1 1 24.8626 22.081 14.8735 24.8626 22.081 14.8735 
7 1 1 24.466 22.4482 15.7734 24.466 22.4482 15.7734 
8 1 1 25.2641 22.2795 16.2632 25.2641 22.2795 16.2632 
ITEM: TIMESTEP
3500000
ITEM: NUMBER OF ATOMS
8
ITEM: BOX BOUNDS pp pp pp
-5.0000000000000000e+01 5.0000000000000000e+01
-5.0000000000000000e+01 5.0000000000000000e+01
-5.0000000000000000e+01 5.0000000000000000e+01
ITEM: ATOMS id mol type x y z xu yu zu 
1 1 2 24.0365 21.0198 14.4837 24.0365 21.0198 14.4837 
2 1 2 23.1708 20.427 14.1167 23.1708 20.427 14.1167 
3 1 2 22.8106 19.4433 14.0864 22.8106 19.4433 14.0864 
4 1 2 22.0123 19.6119 13.4734 22.0123 19.6119 13.4734 
5 1 1 21.7936 19.6366 14.4167 21.7936 19.6366 14.4167 
6 1 1 21.6783 18.9595 14.9661 21.6783 18.9595 14.9661 
7 1 1 22.5554 19.4484 15.2008 22.5554 19.4484 15.2008 
8 1 1 22.6861 20.0077 16.1062 22.6861 20.0077 16.1062 
ITEM: TIMESTEP
3600000
ITEM: NUMBER OF ATOMS
8
ITEM: BOX BOUNDS pp pp pp
-5.0000000000000000e+01 5.0000000000000000e+01
-5.0000000000000000e+01 5.0000000000000000e+01
-5.0000000000000000e+01 5.0000000000000000e+01
ITEM: ATOMS id mol type x y z xu yu zu 
1 1 2 29.566 24.7453 17.6339 29.566 24.7453 17.6339 
2 1 2 29.2207 25.3844 18.2684 29.2207 25.3844 18.2684 
3 1 2 28.3396 25.6423 18.658 28.3396 25.6423 18.658 
4 1 2 28.2682 24.6719 18.4196 28.2682 24.6719 18.4196 
5 1 1 28.2251 24.5804 17.396 28.2251 24.5804 17.396 
6 1 1 28.1432 23.6182 17.2686 28.1432 23.6182 17.2686 
7 1 1 27.859 24.2211 16.5151 27.859 24.2211 16.5151 
8 1 1 27.1836 23.8335 15.8444 27.1836 23.8335 15.8444 
ITEM: TIMESTEP
3700000
ITEM: NUMBER OF ATOMS
8
ITEM: BOX BOUNDS pp pp pp
-5.0000000000000000e+01 5.0000000000000000e+01
-5.0000000000000000e+01 5.0000000000000000e+01
-5.0000000000000000e+01 5.0000000000000000e+01
ITEM: ATOMS id mol type x y z xu yu zu 
1 1 2 28.5495 15.928 17.3758 28.5495 15.928 17.3758 
2 1 2 28.6998 15.6873 16.3869 28.6998 15.6873 16.3869 
3 1 2 28.9999 15.0606 15.649 28.9999 15.0606 15.649 
4 1 2 28.3207 14.6425 14.9688 28.3207 14.6425 14.9688 
5 1 1 28.8803 15.2053 14.2958 28.8803 15.2053 14.2958 
6 1 1 28.7287 15.4733 13.3157 28.7287 15.4733 13.3157 
7 1 1 28.8535 15.0825 12.2623 28.8535 15.0825 12.2623 
8 1 1 27.9167 15.0489 12.164 27.9167 15.0489 12.164 
ITEM: TIMESTEP
3800000
ITEM: NUMBER OF ATOMS
8
ITEM: BOX BOUNDS pp pp pp
-5.0000000000000000e+01 5.0000000000000000e+01
-5.0000000000000000e+01 5.0000000000000000e+01
-5.0000000000000000e+01 5.0000000000000000e+01
ITEM: ATOMS id mol type x y z xu yu zu 
1 1 2 24.8353 18.9783 20.4483 24.8353 18.9783 20.4483 
2 1 2 24.084 18.6311 20.7035 24.084 18.6311 20.7035 
3 1 2 24.052 18.4225 21.6094 24.052 18.4225 21.6094 
4 1 2 24.7197 17.9214 22.0989 24.7197 17.9214 22.0989 
5 1 1 25.5564 17.7453 22.6455 25.5564 17.7453 22.6455 
6 1 1 26.4921 17.7633 22.8007 26.4921 17.7633 22.8007 
7 1 1 26.2766 17.4455 23.8445 26.2766 17.4455 23.8445 
8 1 1 26.948 18.2516 24.2155 26.948 18.2516 24.2155 
ITEM: TIMESTEP
3900000
ITEM: NUMBER OF ATOMS
8
ITEM: BOX BOUNDS pp pp pp
-5.0000000000000000e+01 5.0000000000000000e+01
-5.0000000000000000e+01 5.0000000000000000e+01
-5.0000000000000000e+01 5.0000000000000000e+01
ITEM: ATOMS id mol type x y z xu yu zu 
1 1 2 21.7579 13.7178 23.5973 21.7579 13.7178 23.5973 
2 1 2 20.7429 13.7553 23.681 20.7429 13.7553 23.681 
3 1 2 20.4732 13.0605 24.2183 20.4732 13.0605 24.2183 
4 1 2 21.2336 13.6522 24.6483 21.2336 13.6522 24.6483 
5 1 1 20.544 14.1765 25.0994 20.544 14.1765 25.0994 
6 1 1 20.1 14.9432 25.7043 20.1 14.9432 25.7043 
7 1 1 21.0502 15.0377 25.7172 21.0502 15.0377 25.7172 
8 1 1 20.713 14.2237 26.266 20.713 14.2237 26.266 
ITEM: TIMESTEP
4000000
ITEM: NUMBER OF ATOMS
8
ITEM: BOX BOUNDS pp pp pp
-5.0000000000000000e+01 5.0000000000000000e+01
-5.0000000000000000e+01 5.0000000000000000e+01
-5.0000000000000000e+01 5.0000000000000000e+01
ITEM: ATOMS id mol type x y z xu yu zu 
1 1 2 22.6109 11.5097 27.9523 22.6109 11.5097 27.9523 
2 1 2 22.6468 12.411 28.3646 22.6468 12.411 28.3646 
3 1 2 22.2066 12.5926 29.1517 22.2066 12.5926 29.1517 
4 1 2 21.9451 13.0975 29.9831 21.9451 13.0975 29.9831 
5 1 1 21.8698 12.0586 30.0852 21.8698 12.0586 30.0852 
6 1 1 22.2616 11.1226 29.7115 22.2616 11.1226 29.7115 
7 1 1 23.0113 11.0435 30.6337 23.0113 11.0435 30.6337 
8 1 1 23.1371 10.5179 29.9336 23.1371 10.5179 29.9336 
ITEM: TIMESTEP
4100000
ITEM: NUMBER OF ATOMS
8
ITEM: BOX BOUNDS pp pp pp
-5.0000000000000000e+01 5.0000000000000000e+01
-5.0000000000000000e+01 5.0000000000000000e+01
-5.0000000000000000e+01 5.0000000000000000e+01
ITEM: ATOMS id mol type x y z xu yu zu 
1 1 2 16.5673 21.0928 33.6463 16.5673 21.0928 33.6463 
2 1 2 17.6441 21.2602 33.6434 17.6441 21.2602 33.6434 
3 1 2 18.2644 20.7059 33.7548 18.2644 20.7059 33.7548 
4 1 2 17.5995 19.8182 34.0843 17.5995 19.8182 34.0843 
5 1 1 17.6228 19.2322 34.849 17.6228 19.2322 34.849 
6 1 1 16.8945 19.5341 35.2915 16.8945 19.5341 35.2915 
7 1 1 16.7442 20.4342 35.8063 16.7442 20.4342 35.8063 
8 1 1 17.5043 20.9899 36.0441 17.5043 20.9899 36.0441 
ITEM: TIMESTEP
4200000
ITEM: NUMBER OF ATOMS
8
ITEM: BOX BOUNDS pp pp pp
-5.0000000000000000e+01 5.0000000000000000e+01
-5.0000000000000000e+01 5.0000000000000000e+01
-5.0000000000000000e+01 5.0000000000000000e+01
ITEM: ATOMS id mol type x y z xu yu zu 
1 1 2 15.791 8.99036 20.9094 15.791 8.99036 20.9094 
2 1 2 16.1876 9.9558 20.8049 16.1876 9.9558 20.8049 
3 1 2 16.4518 10.6338 21.4305 16.4518 10.6338 21.4305 
4 1 2 15.5977 11.1993 21.5579 15.5977 11.1993 21.5579 
5 1 1 15.2749 11.7598 22.1742 15.2749 11.7598 22.1742 
6 1 1 15.1644 12.7264 22.5261 15.1644 12.7264 22.5261 
7 1 1 15.7552 12.8498 23.263 15.7552 12.8498 23.263 
8 1 1 16.0768 12.7237 24.361 16.0768 12.7237 24.361 
ITEM: TIMESTEP
4300000
ITEM: NUMBER OF ATOMS
8
ITEM: BOX BOUNDS pp pp pp
-5.0000000000000000e+01 5.0000000000000000e+01
-5.0000000000000000e+01 5.0000000000000000e+01
-5.0000000000000000e+01 5.0000000000000000e+01
ITEM: ATOMS id mol type x y z xu yu zu 
1 1 2 16.018 3.47853 28.6285 16.018 3.47853 28.6285 
2 1 2 15.5044 3.03325 29.3459 15.5044 3.03325 29.3459 
3 1 2 15.3926 3.29075 30.2919 15.3926 3.29075 30.2919 
4 1 2 15.7822 2.68228 31.0808 15.7822 2.68228 31.0808 