TYPY created LAMMPS data file
20 atoms 
19 bonds 
2 atom types 
1 bond types 
0 angles 
0 angle types 
0 dihedrals 
0 dihedral types 
0 impropers 
0 improper types 
-50.000000 50.000000 xlo xhi 
-50.000000 50.000000 ylo yhi 
-50.000000 50.000000 zlo zhi 

# Type Table
# 1 1
# 2 2

# Bond Table
# 1 1

Masses 

1 1.000000
2 1.000000

Atoms # molecular

1 1 2 0.000000 0.000000 0.000000 0 0 0
2 1 2 -0.500000 0.866025 0.000000 0 0 0
3 1 2 -1.000000 0.000000 0.000000 0 0 0
4 1 2 -0.500000 -0.866025 0.000000 0 0 0
5 1 2 0.500000 -0.866025 0.000000 0 0 0
6 1 2 1.000000 0.000000 0.000000 0 0 0
7 1 2 0.500000 0.866025 0.000000 0 0 0
8 1 2 0.000000 1.732051 0.000000 0 0 0
9 1 2 -1.000000 1.732051 0.000000 0 0 0
10 1 2 -1.500000 0.866025 0.000000 0 0 0
11 1 1 -2.000000 0.000000 0.000000 0 0 0
12 1 1 -1.500000 -0.866025 0.000000 0 0 0
13 1 1 -1.000000 -1.732051 0.000000 0 0 0
14 1 1 0.000000 -1.732051 0.000000 0 0 0
15 1 1 1.000000 -1.732051 0.000000 0 0 0
16 1 1 1.500000 -0.866025 0.000000 0 0 0
17 1 1 2.000000 0.000000 0.000000 0 0 0
18 1 1 1.500000 0.866025 0.000000 0 0 0
19 1 1 1.000000 1.732051 0.000000 0 0 0
20 1 1 0.500000 2.598076 0.000000 0 0 0

Bonds 

1 1 1 2 
2 1 2 3 
3 1 3 4 
4 1 4 5 
5 1 5 6 
6 1 6 7 
7 1 7 8 
8 1 8 9 
9 1 9 10 
10 1 10 11 
11 1 11 12 
12 1 12 13 
13 1 13 14 
14 1 14 15 
15 1 15 16 
16 1 16 17 
17 1 17 18 
18 1 18 19 
19 1 19 20 






