ITEM: TIMESTEP
100000
ITEM: NUMBER OF ATOMS
20
ITEM: BOX BOUNDS pp pp pp
-5.0000000000000000e+01 5.0000000000000000e+01
-5.0000000000000000e+01 5.0000000000000000e+01
-5.0000000000000000e+01 5.0000000000000000e+01
ITEM: ATOMS id mol type x y z xu yu zu 
1 1 2 4.41334 -4.52716 2.00516 4.41334 -4.52716 2.00516 
2 1 2 3.87476 -4.76078 1.25468 3.87476 -4.76078 1.25468 
3 1 2 3.16646 -4.14447 0.833685 3.16646 -4.14447 0.833685 
4 1 2 2.17771 -4.50174 0.754151 2.17771 -4.50174 0.754151 
5 1 2 1.19256 -4.43362 1.09121 1.19256 -4.43362 1.09121 
6 1 2 1.313 -3.82241 0.368462 1.313 -3.82241 0.368462 
7 1 2 0.291353 -4.2376 0.592987 0.291353 -4.2376 0.592987 
8 1 2 -0.227595 -3.8792 -0.191789 -0.227595 -3.8792 -0.191789 
9 1 2 0.283701 -3.30553 0.144182 0.283701 -3.30553 0.144182 
10 1 2 -0.408511 -2.8255 -0.419343 -0.408511 -2.8255 -0.419343 
11 1 1 -0.505655 -2.5579 0.646374 -0.505655 -2.5579 0.646374 
12 1 1 -1.3777 -2.77674 0.935112 -1.3777 -2.77674 0.935112 
13 1 1 -2.33745 -2.48891 0.790799 -2.33745 -2.48891 0.790799 
14 1 1 -2.09626 -3.01583 1.60284 -2.09626 -3.01583 1.60284 
15 1 1 -3.01871 -2.78903 1.82172 -3.01871 -2.78903 1.82172 
16 1 1 -3.82833 -2.22972 1.8395 -3.82833 -2.22972 1.8395 
17 1 1 -3.82172 -2.23162 0.888463 -3.82172 -2.23162 0.888463 
18 1 1 -3.75856 -1.4637 0.30509 -3.75856 -1.4637 0.30509 
19 1 1 -4.00999 -1.58094 -0.460317 -4.00999 -1.58094 -0.460317 
20 1 1 -4.37094 -2.48071 -0.553212 -4.37094 -2.48071 -0.553212 
ITEM: TIMESTEP
200000
ITEM: NUMBER OF ATOMS
20
ITEM: BOX BOUNDS pp pp pp
-5.0000000000000000e+01 5.0000000000000000e+01
-5.0000000000000000e+01 5.0000000000000000e+01
-5.0000000000000000e+01 5.0000000000000000e+01
ITEM: ATOMS id mol type x y z xu yu zu 
1 1 2 -5.20046 0.756146 0.222371 -5.20046 0.756146 0.222371 
2 1 2 -4.87033 1.01289 1.1007 -4.87033 1.01289 1.1007 
3 1 2 -4.70943 0.921997 2.09875 -4.70943 0.921997 2.09875 
4 1 2 -3.86465 1.47905 2.14347 -3.86465 1.47905 2.14347 
5 1 2 -3.54603 1.95301 1.21629 -3.54603 1.95301 1.21629 
6 1 2 -3.88725 1.31933 0.630673 -3.88725 1.31933 0.630673 
7 1 2 -4.77539 1.83404 0.295581 -4.77539 1.83404 0.295581 
8 1 2 -4.33938 1.81933 -0.488232 -4.33938 1.81933 -0.488232 
9 1 2 -3.46119 1.83296 -0.974733 -3.46119 1.83296 -0.974733 
10 1 2 -4.06707 2.16142 -1.71506 -4.06707 2.16142 -1.71506 
11 1 1 -4.77056 2.43928 -2.33062 -4.77056 2.43928 -2.33062 
12 1 1 -4.25006 2.00674 -2.99214 -4.25006 2.00674 -2.99214 
13 1 1 -3.9387 2.81688 -3.30511 -3.9387 2.81688 -3.30511 
14 1 1 -2.98787 2.85835 -3.61655 -2.98787 2.85835 -3.61655 
15 1 1 -2.37484 2.07045 -3.39224 -2.37484 2.07045 -3.39224 
16 1 1 -2.3984 1.93726 -2.38162 -2.3984 1.93726 -2.38162 
17 1 1 -1.52295 2.4114 -2.69021 -1.52295 2.4114 -2.69021 
18 1 1 -1.17494 2.13976 -3.59565 -1.17494 2.13976 -3.59565 
19 1 1 -1.66542 2.22552 -4.39823 -1.66542 2.22552 -4.39823 
20 1 1 -1.46454 1.55999 -4.89052 -1.46454 1.55999 -4.89052 
ITEM: TIMESTEP
300000
ITEM: NUMBER OF ATOMS
20
ITEM: BOX BOUNDS pp pp pp
-5.0000000000000000e+01 5.0000000000000000e+01
-5.0000000000000000e+01 5.0000000000000000e+01
-5.0000000000000000e+01 5.0000000000000000e+01
ITEM: ATOMS id mol type x y z xu yu zu 
1 1 2 -3.71714 1.26083 -0.707703 -3.71714 1.26083 -0.707703 
2 1 2 -4.09138 0.842338 -1.57749 -4.09138 0.842338 -1.57749 
3 1 2 -4.73043 1.14339 -2.40407 -4.73043 1.14339 -2.40407 
4 1 2 -4.67682 1.91625 -2.9355 -4.67682 1.91625 -2.9355 
5 1 2 -4.01642 2.76633 -2.73366 -4.01642 2.76633 -2.73366 
6 1 2 -3.02455 2.57556 -2.97285 -3.02455 2.57556 -2.97285 
7 1 2 -2.75664 3.35877 -3.52706 -2.75664 3.35877 -3.52706 
8 1 2 -2.21168 3.70152 -2.68261 -2.21168 3.70152 -2.68261 
9 1 2 -2.10842 4.51244 -1.91359 -2.10842 4.51244 -1.91359 
10 1 2 -1.8966 5.41419 -1.4222 -1.8966 5.41419 -1.4222 
11 1 1 -1.65109 4.74149 -0.703709 -1.65109 4.74149 -0.703709 
12 1 1 -0.543803 5.03581 -0.918447 -0.543803 5.03581 -0.918447 
13 1 1 0.488054 5.04714 -0.736556 0.488054 5.04714 -0.736556 
14 1 1 1.03154 4.10343 -0.781235 1.03154 4.10343 -0.781235 
15 1 1 0.88796 3.81613 -1.71012 0.88796 3.81613 -1.71012 
16 1 1 -0.130859 3.89183 -1.8698 -0.130859 3.89183 -1.8698 
17 1 1 0.0620647 3.5754 -2.82675 0.0620647 3.5754 -2.82675 
18 1 1 -0.272436 2.85314 -3.4971 -0.272436 2.85314 -3.4971 
19 1 1 0.196223 3.5412 -4.08279 0.196223 3.5412 -4.08279 
20 1 1 0.286582 3.4028 -5.00693 0.286582 3.4028 -5.00693 
ITEM: TIMESTEP
400000
ITEM: NUMBER OF ATOMS
20
ITEM: BOX BOUNDS pp pp pp
-5.0000000000000000e+01 5.0000000000000000e+01
-5.0000000000000000e+01 5.0000000000000000e+01
-5.0000000000000000e+01 5.0000000000000000e+01
ITEM: ATOMS id mol type x y z xu yu zu 
1 1 2 4.00842 9.62574 -5.57201 4.00842 9.62574 -5.57201 
2 1 2 4.21293 8.76029 -5.0502 4.21293 8.76029 -5.0502 
3 1 2 4.84979 8.01764 -5.37782 4.84979 8.01764 -5.37782 
4 1 2 5.1752 7.78847 -4.40735 5.1752 7.78847 -4.40735 
5 1 2 4.79369 6.99068 -4.65059 4.79369 6.99068 -4.65059 
6 1 2 4.03483 6.2761 -4.62494 4.03483 6.2761 -4.62494 
7 1 2 3.37703 6.57039 -3.78594 3.37703 6.57039 -3.78594 
8 1 2 2.58846 5.84714 -3.748 2.58846 5.84714 -3.748 
9 1 2 3.31294 5.78183 -2.90081 3.31294 5.78183 -2.90081 
10 1 2 3.56962 4.77357 -2.89321 3.56962 4.77357 -2.89321 
11 1 1 4.4406 4.16032 -3.28988 4.4406 4.16032 -3.28988 
12 1 1 4.49479 4.56718 -2.21853 4.49479 4.56718 -2.21853 
13 1 1 3.73146 4.91588 -1.8827 3.73146 4.91588 -1.8827 
14 1 1 3.19085 4.09599 -1.5128 3.19085 4.09599 -1.5128 
15 1 1 2.07659 4.05215 -1.60498 2.07659 4.05215 -1.60498 
16 1 1 1.52858 4.02576 -0.795205 1.52858 4.02576 -0.795205 
17 1 1 0.793123 3.52767 -1.23141 0.793123 3.52767 -1.23141 
18 1 1 1.00297 3.96701 -1.95903 1.00297 3.96701 -1.95903 
19 1 1 0.490032 4.72268 -2.53182 0.490032 4.72268 -2.53182 
20 1 1 -0.453819 4.44823 -2.52908 -0.453819 4.44823 -2.52908 
ITEM: TIMESTEP
500000
ITEM: NUMBER OF ATOMS
20
ITEM: BOX BOUNDS pp pp pp
-5.0000000000000000e+01 5.0000000000000000e+01
-5.0000000000000000e+01 5.0000000000000000e+01
-5.0000000000000000e+01 5.0000000000000000e+01
ITEM: ATOMS id mol type x y z xu yu zu 
1 1 2 5.23729 1.91379 -4.81263 5.23729 1.91379 -4.81263 
2 1 2 5.27325 1.31299 -5.51123 5.27325 1.31299 -5.51123 
3 1 2 4.36102 0.978656 -5.15312 4.36102 0.978656 -5.15312 
4 1 2 4.04597 0.626614 -4.34386 4.04597 0.626614 -4.34386 
5 1 2 4.05774 0.87978 -3.30407 4.05774 0.87978 -3.30407 
6 1 2 4.75168 0.59398 -2.73282 4.75168 0.59398 -2.73282 
7 1 2 5.49563 0.0935902 -2.74588 5.49563 0.0935902 -2.74588 
8 1 2 5.6254 -0.585741 -3.42867 5.6254 -0.585741 -3.42867 
9 1 2 5.66298 -0.583376 -4.44854 5.66298 -0.583376 -4.44854 
10 1 2 5.78136 -0.525177 -5.38181 5.78136 -0.525177 -5.38181 
11 1 1 6.46001 -0.072037 -5.95218 6.46001 -0.072037 -5.95218 
12 1 1 7.50165 -0.372457 -5.78261 7.50165 -0.372457 -5.78261 
13 1 1 7.9366 -0.952129 -5.14379 7.9366 -0.952129 -5.14379 
14 1 1 8.19028 -1.10549 -4.26434 8.19028 -1.10549 -4.26434 
15 1 1 8.99932 -0.377528 -3.85533 8.99932 -0.377528 -3.85533 
16 1 1 9.36407 -0.998541 -4.51383 9.36407 -0.998541 -4.51383 
17 1 1 10.3045 -1.00693 -4.66243 10.3045 -1.00693 -4.66243 
18 1 1 10.7674 -1.49545 -5.43519 10.7674 -1.49545 -5.43519 
19 1 1 11.2836 -2.44205 -5.45761 11.2836 -2.44205 -5.45761 
20 1 1 12.1537 -2.97378 -5.57538 12.1537 -2.97378 -5.57538 
ITEM: TIMESTEP
600000
ITEM: NUMBER OF ATOMS
20
ITEM: BOX BOUNDS pp pp pp
-5.0000000000000000e+01 5.0000000000000000e+01
-5.0000000000000000e+01 5.0000000000000000e+01
-5.0000000000000000e+01 5.0000000000000000e+01
ITEM: ATOMS id mol type x y z xu yu zu 
1 1 2 7.5043 -7.66117 -1.92451 7.5043 -7.66117 -1.92451 
2 1 2 7.84932 -7.24589 -0.997001 7.84932 -7.24589 -0.997001 
3 1 2 7.56315 -7.2459 -0.0480425 7.56315 -7.2459 -0.0480425 
4 1 2 7.00613 -7.15649 0.715348 7.00613 -7.15649 0.715348 
5 1 2 7.19423 -6.56324 1.73447 7.19423 -6.56324 1.73447 
6 1 2 6.91244 -5.98747 2.57498 6.91244 -5.98747 2.57498 
7 1 2 6.8108 -5.18384 2.29676 6.8108 -5.18384 2.29676 
8 1 2 5.87034 -4.84626 2.72222 5.87034 -4.84626 2.72222 
9 1 2 6.58902 -4.55342 3.38121 6.58902 -4.55342 3.38121 
10 1 2 5.98191 -3.7952 3.13136 5.98191 -3.7952 3.13136 
11 1 1 6.99607 -3.44314 3.1396 6.99607 -3.44314 3.1396 
12 1 1 7.7686 -2.85136 3.25893 7.7686 -2.85136 3.25893 
13 1 1 8.54585 -2.43396 3.66161 8.54585 -2.43396 3.66161 
14 1 1 9.22346 -2.64098 3.08284 9.22346 -2.64098 3.08284 
15 1 1 9.29088 -3.33671 2.4445 9.29088 -3.33671 2.4445 
16 1 1 8.7706 -2.81831 1.83459 8.7706 -2.81831 1.83459 
17 1 1 8.47715 -2.65905 1.00828 8.47715 -2.65905 1.00828 
18 1 1 7.93439 -2.46889 0.223565 7.93439 -2.46889 0.223565 
19 1 1 8.15395 -2.21953 -0.711157 8.15395 -2.21953 -0.711157 
20 1 1 8.00898 -3.12121 -0.953503 8.00898 -3.12121 -0.953503 
ITEM: TIMESTEP
700000
ITEM: NUMBER OF ATOMS
20
ITEM: BOX BOUNDS pp pp pp
-5.0000000000000000e+01 5.0000000000000000e+01
-5.0000000000000000e+01 5.0000000000000000e+01
-5.0000000000000000e+01 5.0000000000000000e+01
ITEM: ATOMS id mol type x y z xu yu zu 
1 1 2 9.72638 -2.98116 -0.823235 9.72638 -2.98116 -0.823235 
2 1 2 9.96529 -3.75363 -0.411995 9.96529 -3.75363 -0.411995 
3 1 2 10.843 -3.78235 -0.0946754 10.843 -3.78235 -0.0946754 
4 1 2 11.4796 -4.5545 -0.100859 11.4796 -4.5545 -0.100859 
5 1 2 11.9011 -5.35939 0.527886 11.9011 -5.35939 0.527886 
6 1 2 12.3843 -4.57938 1.05245 12.3843 -4.57938 1.05245 
7 1 2 12.5216 -4.68337 2.08591 12.5216 -4.68337 2.08591 
8 1 2 11.8231 -5.05492 2.82562 11.8231 -5.05492 2.82562 
9 1 2 11.7134 -4.29433 3.53803 11.7134 -4.29433 3.53803 
10 1 2 10.807 -4.09448 3.86345 10.807 -4.09448 3.86345 
11 1 1 9.86154 -4.10809 3.51037 9.86154 -4.10809 3.51037 
12 1 1 10.3127 -4.91958 3.14752 10.3127 -4.91958 3.14752 
13 1 1 10.6925 -5.42054 3.86574 10.6925 -5.42054 3.86574 
14 1 1 10.6487 -5.08088 4.84674 10.6487 -5.08088 4.84674 
15 1 1 10.3574 -4.2499 4.83803 10.3574 -4.2499 4.83803 
16 1 1 9.69877 -4.40935 5.58566 9.69877 -4.40935 5.58566 
17 1 1 10.0363 -4.81867 6.34811 10.0363 -4.81867 6.34811 
18 1 1 10.4978 -5.35143 7.03804 10.4978 -5.35143 7.03804 
19 1 1 9.6057 -5.70586 7.54196 9.6057 -5.70586 7.54196 
20 1 1 9.4355 -5.8644 6.59158 9.4355 -5.8644 6.59158 
ITEM: TIMESTEP
800000
ITEM: NUMBER OF ATOMS
20
ITEM: BOX BOUNDS pp pp pp
-5.0000000000000000e+01 5.0000000000000000e+01
-5.0000000000000000e+01 5.0000000000000000e+01
-5.0000000000000000e+01 5.0000000000000000e+01
ITEM: ATOMS id mol type x y z xu yu zu 
1 1 2 10.129 -10.132 5.08097 10.129 -10.132 5.08097 
2 1 2 10.7608 -10.25 5.78993 10.7608 -10.25 5.78993 
3 1 2 11.6423 -10.4033 5.55534 11.6423 -10.4033 5.55534 
4 1 2 12.0923 -10.1833 6.4433 12.0923 -10.1833 6.4433 
5 1 2 12.0038 -9.61914 7.35571 12.0038 -9.61914 7.35571 
6 1 2 11.9244 -8.87479 6.70808 11.9244 -8.87479 6.70808 
7 1 2 12.2514 -8.49417 7.7417 12.2514 -8.49417 7.7417 
8 1 2 12.9752 -8.74515 8.39784 12.9752 -8.74515 8.39784 
9 1 2 12.3478 -9.42162 8.80214 12.3478 -9.42162 8.80214 
10 1 2 11.6258 -8.93961 9.12852 11.6258 -8.93961 9.12852 
11 1 1 11.653 -8.35955 9.91145 11.653 -8.35955 9.91145 
12 1 1 11.711 -7.90384 8.92293 11.711 -7.90384 8.92293 
13 1 1 11.9884 -7.30262 8.13733 11.9884 -7.30262 8.13733 
14 1 1 11.1463 -6.71075 8.25423 11.1463 -6.71075 8.25423 
15 1 1 10.1189 -6.47147 8.43862 10.1189 -6.47147 8.43862 
16 1 1 9.15327 -6.02571 8.61746 9.15327 -6.02571 8.61746 
17 1 1 9.80816 -5.38571 8.68002 9.80816 -5.38571 8.68002 
18 1 1 9.46653 -4.74062 7.90884 9.46653 -4.74062 7.90884 
19 1 1 8.79613 -5.2452 7.26708 8.79613 -5.2452 7.26708 
20 1 1 8.51459 -5.39732 8.14669 8.51459 -5.39732 8.14669 
ITEM: TIMESTEP
900000
ITEM: NUMBER OF ATOMS
20
ITEM: BOX BOUNDS pp pp pp
-5.0000000000000000e+01 5.0000000000000000e+01
-5.0000000000000000e+01 5.0000000000000000e+01
-5.0000000000000000e+01 5.0000000000000000e+01
ITEM: ATOMS id mol type x y z xu yu zu 
1 1 2 14.2343 0.908865 16.1491 14.2343 0.908865 16.1491 
2 1 2 14.4002 1.56407 16.9547 14.4002 1.56407 16.9547 
3 1 2 13.7442 2.09929 16.2637 13.7442 2.09929 16.2637 
4 1 2 13.0027 2.41739 16.7153 13.0027 2.41739 16.7153 
5 1 2 12.1811 2.98343 17.035 12.1811 2.98343 17.035 
6 1 2 12.3809 2.26213 17.8514 12.3809 2.26213 17.8514 
7 1 2 12.4005 2.00705 18.7814 12.4005 2.00705 18.7814 
8 1 2 11.9506 1.15115 18.8271 11.9506 1.15115 18.8271 
9 1 2 11.4347 0.569271 18.2342 11.4347 0.569271 18.2342 
10 1 2 11.4114 0.126056 17.3705 11.4114 0.126056 17.3705 
11 1 1 12.2541 -0.461953 16.8842 12.2541 -0.461953 16.8842 
12 1 1 11.8372 -0.307902 15.9714 11.8372 -0.307902 15.9714 
13 1 1 12.6656 -0.815413 15.4443 12.6656 -0.815413 15.4443 
14 1 1 12.5044 -0.904902 14.4933 12.5044 -0.904902 14.4933 
15 1 1 13.1118 -1.69287 14.5628 13.1118 -1.69287 14.5628 
16 1 1 14.1768 -1.54791 14.4946 14.1768 -1.54791 14.4946 
17 1 1 14.1782 -1.64833 15.4943 14.1782 -1.64833 15.4943 
18 1 1 13.3054 -1.97961 15.7355 13.3054 -1.97961 15.7355 
19 1 1 13.4801 -2.85289 16.2317 13.4801 -2.85289 16.2317 
20 1 1 12.5571 -2.42888 16.4979 12.5571 -2.42888 16.4979 
ITEM: TIMESTEP
1000000
ITEM: NUMBER OF ATOMS
20
ITEM: BOX BOUNDS pp pp pp
-5.0000000000000000e+01 5.0000000000000000e+01
-5.0000000000000000e+01 5.0000000000000000e+01
-5.0000000000000000e+01 5.0000000000000000e+01
ITEM: ATOMS id mol type x y z xu yu zu 
1 1 2 10.5606 2.19763 9.79238 10.5606 2.19763 9.79238 
2 1 2 10.3109 1.57335 10.4436 10.3109 1.57335 10.4436 
3 1 2 10.3222 0.72736 9.69568 10.3222 0.72736 9.69568 
4 1 2 11.1972 1.25229 9.81894 11.1972 1.25229 9.81894 
5 1 2 11.5877 0.342292 9.73418 11.5877 0.342292 9.73418 
6 1 2 12.1883 -0.356276 10.2807 12.1883 -0.356276 10.2807 
7 1 2 12.0915 -1.2153 10.2302 12.0915 -1.2153 10.2302 
8 1 2 12.7994 -0.913162 10.888 12.7994 -0.913162 10.888 
9 1 2 12.6145 -0.446691 11.8234 12.6145 -0.446691 11.8234 
10 1 2 11.7065 -0.210242 11.4389 11.7065 -0.210242 11.4389 
11 1 1 10.7747 0.155478 11.833 10.7747 0.155478 11.833 
12 1 1 11.3528 0.872157 12.0324 11.3528 0.872157 12.0324 
13 1 1 11.537 1.56558 12.8646 11.537 1.56558 12.8646 
14 1 1 12.4654 1.99947 12.8755 12.4654 1.99947 12.8755 
15 1 1 12.4937 1.98106 13.9636 12.4937 1.98106 13.9636 
16 1 1 13.1862 1.7007 14.6044 13.1862 1.7007 14.6044 
17 1 1 13.6671 0.661367 14.706 13.6671 0.661367 14.706 
18 1 1 13.7073 0.0676551 13.9689 13.7073 0.0676551 13.9689 
19 1 1 14.4167 -0.781128 13.6373 14.4167 -0.781128 13.6373 
20 1 1 14.2111 -0.988888 14.3792 14.2111 -0.988888 14.3792 
ITEM: TIMESTEP
1100000
ITEM: NUMBER OF ATOMS
20
ITEM: BOX BOUNDS pp pp pp
-5.0000000000000000e+01 5.0000000000000000e+01
-5.0000000000000000e+01 5.0000000000000000e+01
-5.0000000000000000e+01 5.0000000000000000e+01
ITEM: ATOMS id mol type x y z xu yu zu 
1 1 2 14.5509 3.42999 15.7204 14.5509 3.42999 15.7204 
2 1 2 13.9665 3.85308 16.3853 13.9665 3.85308 16.3853 
3 1 2 13.3843 3.47578 15.7356 13.3843 3.47578 15.7356 
4 1 2 12.7711 2.78588 15.4204 12.7711 2.78588 15.4204 
5 1 2 13.2216 2.48925 14.5525 13.2216 2.48925 14.5525 
6 1 2 13.6247 1.55724 14.3963 13.6247 1.55724 14.3963 
7 1 2 13.1595 1.41421 15.2162 13.1595 1.41421 15.2162 
8 1 2 13.1056 0.593411 15.7464 13.1056 0.593411 15.7464 
9 1 2 13.2772 -0.26333 15.3042 13.2772 -0.26333 15.3042 
10 1 2 13.6985 -0.260587 16.0646 13.6985 -0.260587 16.0646 
11 1 1 14.1695 -0.946086 15.9258 14.1695 -0.946086 15.9258 
12 1 1 14.4268 -1.91975 15.7934 14.4268 -1.91975 15.7934 
13 1 1 14.5887 -2.74335 15.357 14.5887 -2.74335 15.357 
14 1 1 13.9222 -3.0014 16.0705 13.9222 -3.0014 16.0705 
15 1 1 13.1631 -2.89655 15.5461 13.1631 -2.89655 15.5461 
16 1 1 13.7213 -3.53962 14.9146 13.7213 -3.53962 14.9146 
17 1 1 14.2864 -4.52892 14.7547 14.2864 -4.52892 14.7547 
18 1 1 14.2358 -4.88666 13.814 14.2358 -4.88666 13.814 
19 1 1 15.0797 -4.52044 13.7641 15.0797 -4.52044 13.7641 
20 1 1 15.6748 -4.87526 14.4461 15.6748 -4.87526 14.4461 
ITEM: TIMESTEP
1200000
ITEM: NUMBER OF ATOMS
20
ITEM: BOX BOUNDS pp pp pp
-5.0000000000000000e+01 5.0000000000000000e+01
-5.0000000000000000e+01 5.0000000000000000e+01
-5.0000000000000000e+01 5.0000000000000000e+01
ITEM: ATOMS id mol type x y z xu yu zu 
1 1 2 11.176 1.23277 13.7569 11.176 1.23277 13.7569 
2 1 2 10.7824 0.446286 13.3995 10.7824 0.446286 13.3995 
3 1 2 11.5161 0.500974 12.6354 11.5161 0.500974 12.6354 
4 1 2 12.1206 0.327092 11.8521 12.1206 0.327092 11.8521 
5 1 2 12.6248 0.443677 10.9629 12.6248 0.443677 10.9629 
6 1 2 13.2599 -0.426917 11.2804 13.2599 -0.426917 11.2804 
7 1 2 14.095 -0.491875 10.6496 14.095 -0.491875 10.6496 
8 1 2 14.0606 -1.1631 11.4802 14.0606 -1.1631 11.4802 
9 1 2 14.3663 -2.09014 11.3289 14.3663 -2.09014 11.3289 
10 1 2 13.889 -2.98928 11.2182 13.889 -2.98928 11.2182 
11 1 1 13.915 -3.20487 12.1584 13.915 -3.20487 12.1584 
12 1 1 14.235 -2.82549 12.9915 14.235 -2.82549 12.9915 
13 1 1 14.5683 -3.02577 13.9334 14.5683 -3.02577 13.9334 
14 1 1 13.5982 -3.21664 14.2229 13.5982 -3.21664 14.2229 
15 1 1 13.4457 -2.33266 14.6708 13.4457 -2.33266 14.6708 
16 1 1 12.9398 -1.98092 13.9033 12.9398 -1.98092 13.9033 
17 1 1 12.1258 -2.30386 13.6736 12.1258 -2.30386 13.6736 
18 1 1 11.5833 -3.2858 13.9478 11.5833 -3.2858 13.9478 
19 1 1 11.5203 -2.85295 14.9221 11.5203 -2.85295 14.9221 
20 1 1 11.6161 -3.93051 15.0514 11.6161 -3.93051 15.0514 
ITEM: TIMESTEP
1300000
ITEM: NUMBER OF ATOMS
20
ITEM: BOX BOUNDS pp pp pp
-5.0000000000000000e+01 5.0000000000000000e+01
-5.0000000000000000e+01 5.0000000000000000e+01
-5.0000000000000000e+01 5.0000000000000000e+01
ITEM: ATOMS id mol type x y z xu yu zu 
1 1 2 15.4812 1.95406 11.6121 15.4812 1.95406 11.6121 
2 1 2 14.6832 2.70676 11.5168 14.6832 2.70676 11.5168 
3 1 2 13.6974 2.66189 11.5316 13.6974 2.66189 11.5316 
4 1 2 14.0068 2.42129 10.6227 14.0068 2.42129 10.6227 
5 1 2 14.494 3.16203 10.236 14.494 3.16203 10.236 
6 1 2 13.6564 3.42734 10.865 13.6564 3.42734 10.865 
7 1 2 12.7192 3.0343 10.8437 12.7192 3.0343 10.8437 
8 1 2 11.9457 2.96746 10.1332 11.9457 2.96746 10.1332 
9 1 2 11.6498 3.72092 10.6388 11.6498 3.72092 10.6388 
10 1 2 10.9247 3.89023 10.0293 10.9247 3.89023 10.0293 
11 1 1 11.0203 4.62019 9.22612 11.0203 4.62019 9.22612 
12 1 1 10.8019 5.63994 9.49496 10.8019 5.63994 9.49496 
13 1 1 11.6144 6.1202 9.98224 11.6144 6.1202 9.98224 
14 1 1 12.5408 5.51787 10.1092 12.5408 5.51787 10.1092 
15 1 1 13.0884 5.10608 9.35485 13.0884 5.10608 9.35485 
16 1 1 13.6736 4.41963 8.94744 13.6736 4.41963 8.94744 
17 1 1 13.64 3.9263 8.05581 13.64 3.9263 8.05581 
18 1 1 14.44 3.32079 8.19872 14.44 3.32079 8.19872 
19 1 1 15.2359 3.31532 8.76012 15.2359 3.31532 8.76012 
20 1 1 15.1792 4.25261 9.04118 15.1792 4.25261 9.04118 
ITEM: TIMESTEP
1400000
ITEM: NUMBER OF ATOMS
20
ITEM: BOX BOUNDS pp pp pp
-5.0000000000000000e+01 5.0000000000000000e+01
-5.0000000000000000e+01 5.0000000000000000e+01
-5.0000000000000000e+01 5.0000000000000000e+01
ITEM: ATOMS id mol type x y z xu yu zu 
1 1 2 8.74039 1.86876 7.88514 8.74039 1.86876 7.88514 
2 1 2 9.51935 2.51165 8.1291 9.51935 2.51165 8.1291 
3 1 2 10.1724 3.45338 8.08573 10.1724 3.45338 8.08573 
4 1 2 10.6699 4.29307 7.71579 10.6699 4.29307 7.71579 
5 1 2 10.1264 4.78352 7.01731 10.1264 4.78352 7.01731 
6 1 2 9.58859 5.48161 6.93618 9.58859 5.48161 6.93618 
7 1 2 9.92896 6.36895 6.57542 9.92896 6.36895 6.57542 
8 1 2 9.0088 6.51241 6.85252 9.0088 6.51241 6.85252 
9 1 2 8.25388 6.27956 6.30801 8.25388 6.27956 6.30801 
10 1 2 8.2209 7.19946 6.01295 8.2209 7.19946 6.01295 
11 1 1 7.68613 7.9286 6.4347 7.68613 7.9286 6.4347 
12 1 1 7.71473 8.58606 7.19344 7.71473 8.58606 7.19344 
13 1 1 8.57656 8.95257 7.10588 8.57656 8.95257 7.10588 
14 1 1 9.0226 8.69718 6.39984 9.0226 8.69718 6.39984 
15 1 1 9.24307 9.54429 5.77457 9.24307 9.54429 5.77457 
16 1 1 9.91342 9.36018 6.42934 9.91342 9.36018 6.42934 
17 1 1 9.80936 10.2333 6.57391 9.80936 10.2333 6.57391 
18 1 1 10.1098 10.6791 7.40014 10.1098 10.6791 7.40014 
19 1 1 10.1972 11.3134 8.09794 10.1972 11.3134 8.09794 
20 1 1 10.9399 11.2677 7.28655 10.9399 11.2677 7.28655 
ITEM: TIMESTEP
1500000
ITEM: NUMBER OF ATOMS
20
ITEM: BOX BOUNDS pp pp pp
-5.0000000000000000e+01 5.0000000000000000e+01
-5.0000000000000000e+01 5.0000000000000000e+01
-5.0000000000000000e+01 5.0000000000000000e+01
ITEM: ATOMS id mol type x y z xu yu zu 
1 1 2 10.0026 3.75639 5.6656 10.0026 3.75639 5.6656 
2 1 2 10.5011 4.05381 4.71665 10.5011 4.05381 4.71665 
3 1 2 10.1202 5.16862 4.83193 10.1202 5.16862 4.83193 
4 1 2 9.28471 4.7567 4.24694 9.28471 4.7567 4.24694 
5 1 2 8.44677 5.20565 4.25959 8.44677 5.20565 4.25959 
6 1 2 7.84474 5.62574 3.47895 7.84474 5.62574 3.47895 
7 1 2 8.14612 6.61757 3.71452 8.14612 6.61757 3.71452 
8 1 2 7.97397 7.63457 3.64353 7.97397 7.63457 3.64353 
9 1 2 8.52439 8.01006 4.34652 8.52439 8.01006 4.34652 
10 1 2 8.36785 8.09257 5.3145 8.36785 8.09257 5.3145 
11 1 1 8.29118 7.82046 6.30016 8.29118 7.82046 6.30016 
12 1 1 8.53662 6.78774 6.27918 8.53662 6.78774 6.27918 
13 1 1 7.98414 5.89004 6.1399 7.98414 5.89004 6.1399 
14 1 1 8.33938 6.01816 7.23708 8.33938 6.01816 7.23708 
15 1 1 9.25352 5.48291 7.40968 9.25352 5.48291 7.40968 
16 1 1 9.36933 5.05235 6.6275 9.36933 5.05235 6.6275 
17 1 1 9.99387 5.91428 6.72803 9.99387 5.91428 6.72803 
18 1 1 10.6265 5.75503 5.90193 10.6265 5.75503 5.90193 
19 1 1 11.5205 5.30805 6.19008 11.5205 5.30805 6.19008 
20 1 1 12.4732 5.34628 6.34247 12.4732 5.34628 6.34247 
ITEM: TIMESTEP
1600000
ITEM: NUMBER OF ATOMS
20
ITEM: BOX BOUNDS pp pp pp
-5.0000000000000000e+01 5.0000000000000000e+01
-5.0000000000000000e+01 5.0000000000000000e+01
-5.0000000000000000e+01 5.0000000000000000e+01
ITEM: ATOMS id mol type x y z xu yu zu 
1 1 2 11.6437 3.45527 9.75326 11.6437 3.45527 9.75326 
2 1 2 11.4209 2.62415 10.2943 11.4209 2.62415 10.2943 
3 1 2 11.4053 2.16009 11.1869 11.4053 2.16009 11.1869 
4 1 2 11.6689 2.9499 11.8002 11.6689 2.9499 11.8002 
5 1 2 10.598 3.28439 11.7859 10.598 3.28439 11.7859 
6 1 2 9.89867 3.85755 11.3942 9.89867 3.85755 11.3942 
7 1 2 10.6199 4.63328 11.7103 10.6199 4.63328 11.7103 
8 1 2 9.93678 4.48094 12.4139 9.93678 4.48094 12.4139 
9 1 2 9.17879 5.0676 12.8119 9.17879 5.0676 12.8119 
10 1 2 8.3492 5.31266 13.1999 8.3492 5.31266 13.1999 
11 1 1 7.38468 4.92099 13.4472 7.38468 4.92099 13.4472 
12 1 1 7.22131 4.03902 13.6403 7.22131 4.03902 13.6403 
13 1 1 6.8285 3.12131 13.5087 6.8285 3.12131 13.5087 
14 1 1 5.81225 3.24606 13.3709 5.81225 3.24606 13.3709 
15 1 1 6.01516 3.29935 14.2879 6.01516 3.29935 14.2879 
16 1 1 6.28708 4.21131 14.2923 6.28708 4.21131 14.2923 
17 1 1 5.55899 4.28776 14.8586 5.55899 4.28776 14.8586 
18 1 1 5.38087 5.05023 14.1886 5.38087 5.05023 14.1886 
19 1 1 5.98005 5.15094 13.4289 5.98005 5.15094 13.4289 
20 1 1 5.6965 4.80936 12.3727 5.6965 4.80936 12.3727 
ITEM: TIMESTEP
1700000
ITEM: NUMBER OF ATOMS
20
ITEM: BOX BOUNDS pp pp pp
-5.0000000000000000e+01 5.0000000000000000e+01
-5.0000000000000000e+01 5.0000000000000000e+01
-5.0000000000000000e+01 5.0000000000000000e+01
ITEM: ATOMS id mol type x y z xu yu zu 
1 1 2 6.03399 -0.754655 12.3222 6.03399 -0.754655 12.3222 
2 1 2 5.42498 -0.177155 11.895 5.42498 -0.177155 11.895 
3 1 2 5.31195 0.509507 11.2558 5.31195 0.509507 11.2558 
4 1 2 5.34634 1.12331 11.8257 5.34634 1.12331 11.8257 
5 1 2 4.46122 1.39225 11.8929 4.46122 1.39225 11.8929 
6 1 2 4.67577 2.36116 12.0878 4.67577 2.36116 12.0878 
7 1 2 5.26715 2.7927 12.6244 5.26715 2.7927 12.6244 
8 1 2 5.78955 2.69354 11.9379 5.78955 2.69354 11.9379 
9 1 2 5.96049 2.98084 10.9509 5.96049 2.98084 10.9509 
10 1 2 5.01733 2.42883 10.6942 5.01733 2.42883 10.6942 
11 1 1 5.11326 2.29561 9.75578 5.11326 2.29561 9.75578 
12 1 1 6.09103 1.89926 9.60406 6.09103 1.89926 9.60406 
13 1 1 5.43518 1.77892 8.90522 5.43518 1.77892 8.90522 
14 1 1 6.38418 1.95818 8.25209 6.38418 1.95818 8.25209 
15 1 1 5.51722 2.43702 7.93157 5.51722 2.43702 7.93157 
16 1 1 4.51144 2.22862 7.67866 4.51144 2.22862 7.67866 
17 1 1 3.58711 2.06563 7.89989 3.58711 2.06563 7.89989 
18 1 1 4.25028 2.26529 8.63051 4.25028 2.26529 8.63051 
19 1 1 4.24214 3.20703 9.22405 4.24214 3.20703 9.22405 
20 1 1 4.10597 3.70116 8.40518 4.10597 3.70116 8.40518 
ITEM: TIMESTEP
1800000
ITEM: NUMBER OF ATOMS
20
ITEM: BOX BOUNDS pp pp pp
-5.0000000000000000e+01 5.0000000000000000e+01
-5.0000000000000000e+01 5.0000000000000000e+01
-5.0000000000000000e+01 5.0000000000000000e+01
ITEM: ATOMS id mol type x y z xu yu zu 
1 1 2 8.77997 -0.0770235 7.56718 8.77997 -0.0770235 7.56718 
2 1 2 9.67022 0.153269 7.91547 9.67022 0.153269 7.91547 
3 1 2 9.19499 -0.413571 8.60437 9.19499 -0.413571 8.60437 
4 1 2 9.29949 -0.525521 9.47637 9.29949 -0.525521 9.47637 
5 1 2 9.31884 0.497216 9.51464 9.31884 0.497216 9.51464 
6 1 2 8.33525 0.308292 9.73696 8.33525 0.308292 9.73696 
7 1 2 7.81079 0.334174 10.6029 7.81079 0.334174 10.6029 
8 1 2 7.11305 -0.223586 11.1562 7.11305 -0.223586 11.1562 
9 1 2 6.49106 -1.10853 11.4294 6.49106 -1.10853 11.4294 
10 1 2 5.85753 -0.209509 11.3458 5.85753 -0.209509 11.3458 
11 1 1 5.11071 -0.754266 11.5802 5.11071 -0.754266 11.5802 
12 1 1 4.50693 0.116407 11.6005 4.50693 0.116407 11.6005 
13 1 1 4.98333 -0.0129421 10.7471 4.98333 -0.0129421 10.7471 
14 1 1 4.71343 0.708187 9.88022 4.71343 0.708187 9.88022 
15 1 1 3.70633 1.04884 9.85571 3.70633 1.04884 9.85571 
16 1 1 3.24466 0.0459064 10.0113 3.24466 0.0459064 10.0113 
17 1 1 2.83185 0.173512 9.1913 2.83185 0.173512 9.1913 
18 1 1 3.26272 -0.632354 9.19147 3.26272 -0.632354 9.19147 
19 1 1 2.33466 -0.963583 8.95713 2.33466 -0.963583 8.95713 
20 1 1 2.53451 -1.84856 8.83059 2.53451 -1.84856 8.83059 
ITEM: TIMESTEP
1900000
ITEM: NUMBER OF ATOMS
20
ITEM: BOX BOUNDS pp pp pp
-5.0000000000000000e+01 5.0000000000000000e+01
-5.0000000000000000e+01 5.0000000000000000e+01
-5.0000000000000000e+01 5.0000000000000000e+01
ITEM: ATOMS id mol type x y z xu yu zu 
1 1 2 9.94504 0.4961 11.8791 9.94504 0.4961 11.8791 
2 1 2 10.1678 -0.102258 12.6837 10.1678 -0.102258 12.6837 
3 1 2 9.69538 -0.547859 11.9195 9.69538 -0.547859 11.9195 
4 1 2 8.97398 -1.27577 11.5061 8.97398 -1.27577 11.5061 
5 1 2 8.56693 -0.928282 12.3202 8.56693 -0.928282 12.3202 
6 1 2 7.67078 -0.538493 11.9709 7.67078 -0.538493 11.9709 
7 1 2 7.24062 -1.07126 12.6819 7.24062 -1.07126 12.6819 
8 1 2 6.34388 -1.48596 12.5521 6.34388 -1.48596 12.5521 
9 1 2 5.75164 -0.666009 12.9447 5.75164 -0.666009 12.9447 
10 1 2 5.82001 0.293316 12.7056 5.82001 0.293316 12.7056 
11 1 1 6.73805 0.397731 12.1293 6.73805 0.397731 12.1293 
12 1 1 7.17996 1.2805 12.1817 7.17996 1.2805 12.1817 
13 1 1 7.84453 1.45494 12.9916 7.84453 1.45494 12.9916 
14 1 1 7.26833 2.31674 13.1943 7.26833 2.31674 13.1943 
15 1 1 7.93495 3.03685 12.8873 7.93495 3.03685 12.8873 
16 1 1 8.87475 3.06179 12.8082 8.87475 3.06179 12.8082 
17 1 1 8.95423 2.43256 13.8041 8.95423 2.43256 13.8041 
18 1 1 8.77538 1.99805 14.7195 8.77538 1.99805 14.7195 
19 1 1 9.77086 2.11399 14.623 9.77086 2.11399 14.623 
20 1 1 10.0097 1.83022 13.5425 10.0097 1.83022 13.5425 
ITEM: TIMESTEP
2000000
ITEM: NUMBER OF ATOMS
20
ITEM: BOX BOUNDS pp pp pp
-5.0000000000000000e+01 5.0000000000000000e+01
-5.0000000000000000e+01 5.0000000000000000e+01
-5.0000000000000000e+01 5.0000000000000000e+01
ITEM: ATOMS id mol type x y z xu yu zu 
1 1 2 9.87541 -0.257713 9.1844 9.87541 -0.257713 9.1844 
2 1 2 9.35971 -1.09325 9.03999 9.35971 -1.09325 9.03999 
3 1 2 9.32525 -0.955621 9.98388 9.32525 -0.955621 9.98388 
4 1 2 8.43871 -1.3324 10.3789 8.43871 -1.3324 10.3789 
5 1 2 7.43071 -1.38327 10.1663 7.43071 -1.38327 10.1663 
6 1 2 7.77398 -1.38866 9.19277 7.77398 -1.38866 9.19277 
7 1 2 8.42687 -0.585518 9.13999 8.42687 -0.585518 9.13999 
8 1 2 8.52301 0.340547 9.86966 8.52301 0.340547 9.86966 
9 1 2 8.08971 1.13145 10.142 8.08971 1.13145 10.142 
10 1 2 8.15349 1.15594 11.1652 8.15349 1.15594 11.1652 
11 1 1 7.33396 1.68388 11.5336 7.33396 1.68388 11.5336 
12 1 1 7.71694 2.13826 10.9994 7.71694 2.13826 10.9994 
13 1 1 8.22256 3.20236 10.9758 8.22256 3.20236 10.9758 
14 1 1 7.31513 3.03352 10.2653 7.31513 3.03352 10.2653 
15 1 1 6.73698 3.66941 10.1934 6.73698 3.66941 10.1934 
16 1 1 7.09538 4.45748 9.4881 7.09538 4.45748 9.4881 
17 1 1 7.55356 4.71945 10.34 7.55356 4.71945 10.34 
18 1 1 8.36645 5.28418 9.99712 8.36645 5.28418 9.99712 
19 1 1 7.83938 5.66441 9.32814 7.83938 5.66441 9.32814 
20 1 1 8.05129 6.47738 9.92115 8.05129 6.47738 9.92115 
ITEM: TIMESTEP
2100000
ITEM: NUMBER OF ATOMS
20
ITEM: BOX BOUNDS pp pp pp
-5.0000000000000000e+01 5.0000000000000000e+01
-5.0000000000000000e+01 5.0000000000000000e+01
-5.0000000000000000e+01 5.0000000000000000e+01
ITEM: ATOMS id mol type x y z xu yu zu 
1 1 2 5.57818 0.39354 8.38439 5.57818 0.39354 8.38439 
2 1 2 5.52973 0.912098 7.59685 5.52973 0.912098 7.59685 
3 1 2 4.68949 1.03435 8.03985 4.68949 1.03435 8.03985 
4 1 2 4.14709 1.30634 7.29209 4.14709 1.30634 7.29209 
5 1 2 4.25767 1.57964 6.46387 4.25767 1.57964 6.46387 
6 1 2 4.10461 2.50936 5.98342 4.10461 2.50936 5.98342 
7 1 2 5.0105 2.38886 6.42364 5.0105 2.38886 6.42364 
8 1 2 5.1635 3.29477 6.91742 5.1635 3.29477 6.91742 
9 1 2 4.98094 4.01922 7.32676 4.98094 4.01922 7.32676 
10 1 2 5.39487 4.98068 7.15524 5.39487 4.98068 7.15524 
11 1 1 4.35315 5.03593 7.39247 4.35315 5.03593 7.39247 
12 1 1 3.30673 4.80806 7.2983 3.30673 4.80806 7.2983 
13 1 1 2.52258 4.38669 7.55844 2.52258 4.38669 7.55844 
14 1 1 1.58988 4.16781 7.86983 1.58988 4.16781 7.86983 
15 1 1 1.93071 3.79928 8.7462 1.93071 3.79928 8.7462 
16 1 1 2.82485 4.19521 9.18995 2.82485 4.19521 9.18995 
17 1 1 2.65551 3.36031 9.68191 2.65551 3.36031 9.68191 
18 1 1 3.01181 2.53755 9.05218 3.01181 2.53755 9.05218 
19 1 1 2.96842 1.60402 9.28982 2.96842 1.60402 9.28982 
20 1 1 3.60308 0.937299 9.59693 3.60308 0.937299 9.59693 
ITEM: TIMESTEP
2200000
ITEM: NUMBER OF ATOMS
20
ITEM: BOX BOUNDS pp pp pp
-5.0000000000000000e+01 5.0000000000000000e+01
-5.0000000000000000e+01 5.0000000000000000e+01
-5.0000000000000000e+01 5.0000000000000000e+01
ITEM: ATOMS id mol type x y z xu yu zu 
1 1 2 2.9606 0.323109 12.4622 2.9606 0.323109 12.4622 
2 1 2 2.58764 -0.49732 12.5069 2.58764 -0.49732 12.5069 
3 1 2 1.71706 -0.515671 11.9782 1.71706 -0.515671 11.9782 
4 1 2 1.35127 0.200586 12.5302 1.35127 0.200586 12.5302 
5 1 2 1.75317 0.559473 11.7276 1.75317 0.559473 11.7276 
6 1 2 1.70347 1.47172 12.2213 1.70347 1.47172 12.2213 
7 1 2 0.990338 1.47966 11.4221 0.990338 1.47966 11.4221 