ITEM: TIMESTEP
100000
ITEM: NUMBER OF ATOMS
20
ITEM: BOX BOUNDS pp pp pp
-5.0000000000000000e+01 5.0000000000000000e+01
-5.0000000000000000e+01 5.0000000000000000e+01
-5.0000000000000000e+01 5.0000000000000000e+01
ITEM: ATOMS id mol type x y z xu yu zu 
1 1 2 3.52057 -2.55758 1.02417 3.52057 -2.55758 1.02417 
2 1 2 2.67973 -2.69758 0.520015 2.67973 -2.69758 0.520015 
3 1 2 2.19476 -1.90176 0.14787 2.19476 -1.90176 0.14787 
4 1 2 1.29002 -2.48277 0.174085 1.29002 -2.48277 0.174085 
5 1 2 0.839872 -3.1652 0.842939 0.839872 -3.1652 0.842939 
6 1 2 0.245165 -3.69636 0.225635 0.245165 -3.69636 0.225635 
7 1 2 -0.622202 -4.09679 0.063775 -0.622202 -4.09679 0.063775 
8 1 2 -1.19479 -4.96723 0.527004 -1.19479 -4.96723 0.527004 
9 1 2 -1.59182 -4.0301 0.885381 -1.59182 -4.0301 0.885381 
10 1 2 -0.999192 -3.49532 1.47542 -0.999192 -3.49532 1.47542 
11 1 1 -1.39765 -4.04232 0.788662 -1.39765 -4.04232 0.788662 
12 1 1 -2.27594 -3.46469 0.784553 -2.27594 -3.46469 0.784553 
13 1 1 -2.37613 -3.96269 1.50392 -2.37613 -3.96269 1.50392 
14 1 1 -2.66227 -3.29501 2.05955 -2.66227 -3.29501 2.05955 
15 1 1 -2.07214 -2.98395 1.26422 -2.07214 -2.98395 1.26422 
16 1 1 -1.66672 -3.93121 1.25116 -1.66672 -3.93121 1.25116 
17 1 1 -1.2602 -3.06138 0.954733 -1.2602 -3.06138 0.954733 
18 1 1 -2.11016 -2.52914 0.669971 -2.11016 -2.52914 0.669971 
19 1 1 -2.08939 -1.95761 -0.114836 -2.08939 -1.95761 -0.114836 
20 1 1 -1.50004 -1.73441 -0.798461 -1.50004 -1.73441 -0.798461 
ITEM: TIMESTEP
200000
ITEM: NUMBER OF ATOMS
20
ITEM: BOX BOUNDS pp pp pp
-5.0000000000000000e+01 5.0000000000000000e+01
-5.0000000000000000e+01 5.0000000000000000e+01
-5.0000000000000000e+01 5.0000000000000000e+01
ITEM: ATOMS id mol type x y z xu yu zu 
1 1 2 -3.97267 2.72442 -2.61945 -3.97267 2.72442 -2.61945 
2 1 2 -3.67354 1.937 -2.29769 -3.67354 1.937 -2.29769 
3 1 2 -2.72619 1.77231 -2.25111 -2.72619 1.77231 -2.25111 
4 1 2 -3.3896 1.13791 -2.32663 -3.3896 1.13791 -2.32663 
5 1 2 -3.3095 1.9227 -2.98599 -3.3095 1.9227 -2.98599 
6 1 2 -4.40361 2.00899 -2.79557 -4.40361 2.00899 -2.79557 
7 1 2 -4.12751 1.19268 -3.34603 -4.12751 1.19268 -3.34603 
8 1 2 -3.55184 2.05311 -3.52222 -3.55184 2.05311 -3.52222 
9 1 2 -3.92752 1.69082 -2.69988 -3.92752 1.69082 -2.69988 
10 1 2 -3.60491 1.07159 -1.85769 -3.60491 1.07159 -1.85769 
11 1 1 -3.20557 1.99115 -1.79829 -3.20557 1.99115 -1.79829 
12 1 1 -3.34053 2.27577 -0.828918 -3.34053 2.27577 -0.828918 
13 1 1 -3.15052 1.43516 -1.3267 -3.15052 1.43516 -1.3267 
14 1 1 -3.50095 1.20653 -0.306411 -3.50095 1.20653 -0.306411 
15 1 1 -2.56527 1.60609 0.141276 -2.56527 1.60609 0.141276 
16 1 1 -2.61203 2.45109 0.549756 -2.61203 2.45109 0.549756 
17 1 1 -3.30211 3.21006 0.665579 -3.30211 3.21006 0.665579 
18 1 1 -3.30497 2.23332 0.757823 -3.30497 2.23332 0.757823 
19 1 1 -3.36026 1.96561 -0.157532 -3.36026 1.96561 -0.157532 
20 1 1 -4.24037 1.66947 -0.0573694 -4.24037 1.66947 -0.0573694 
ITEM: TIMESTEP
300000
ITEM: NUMBER OF ATOMS
20
ITEM: BOX BOUNDS pp pp pp
-5.0000000000000000e+01 5.0000000000000000e+01
-5.0000000000000000e+01 5.0000000000000000e+01
-5.0000000000000000e+01 5.0000000000000000e+01
ITEM: ATOMS id mol type x y z xu yu zu 
1 1 2 -2.08906 4.62523 -2.15844 -2.08906 4.62523 -2.15844 
2 1 2 -2.43647 4.31175 -1.22735 -2.43647 4.31175 -1.22735 
3 1 2 -3.36909 4.03464 -0.785204 -3.36909 4.03464 -0.785204 
4 1 2 -3.0671 4.59471 -1.61211 -3.0671 4.59471 -1.61211 
5 1 2 -2.45839 5.45756 -1.82545 -2.45839 5.45756 -1.82545 
6 1 2 -2.81395 4.47868 -1.87864 -2.81395 4.47868 -1.87864 
7 1 2 -3.26623 3.73425 -2.3224 -3.26623 3.73425 -2.3224 
8 1 2 -2.37499 3.75255 -1.86478 -2.37499 3.75255 -1.86478 
9 1 2 -2.98275 4.53484 -2.35471 -2.98275 4.53484 -2.35471 
10 1 2 -2.38872 3.93226 -2.55048 -2.38872 3.93226 -2.55048 
11 1 1 -2.16529 2.82074 -2.47114 -2.16529 2.82074 -2.47114 
12 1 1 -1.66598 2.92525 -3.3566 -1.66598 2.92525 -3.3566 
13 1 1 -1.00179 3.55952 -3.89668 -1.00179 3.55952 -3.89668 
14 1 1 -0.621441 2.59537 -3.70443 -0.621441 2.59537 -3.70443 
15 1 1 -0.0285716 2.92263 -2.96196 -0.0285716 2.92263 -2.96196 
16 1 1 -0.805377 3.01904 -2.42193 -0.805377 3.01904 -2.42193 
17 1 1 -0.469441 2.22043 -2.33009 -0.469441 2.22043 -2.33009 
18 1 1 0.338104 1.66579 -2.00844 0.338104 1.66579 -2.00844 
19 1 1 0.497929 0.615618 -1.7746 0.497929 0.615618 -1.7746 
20 1 1 0.292747 1.69913 -1.50472 0.292747 1.69913 -1.50472 
ITEM: TIMESTEP
400000
ITEM: NUMBER OF ATOMS
20
ITEM: BOX BOUNDS pp pp pp
-5.0000000000000000e+01 5.0000000000000000e+01
-5.0000000000000000e+01 5.0000000000000000e+01
-5.0000000000000000e+01 5.0000000000000000e+01
ITEM: ATOMS id mol type x y z xu yu zu 
1 1 2 3.02887 5.41702 -4.72288 3.02887 5.41702 -4.72288 
2 1 2 3.49564 6.2748 -4.88729 3.49564 6.2748 -4.88729 
3 1 2 4.24946 6.20161 -4.4633 4.24946 6.20161 -4.4633 
4 1 2 3.96715 5.34957 -3.94009 3.96715 5.34957 -3.94009 
5 1 2 3.19737 5.6316 -4.54197 3.19737 5.6316 -4.54197 
6 1 2 2.47109 5.11167 -4.16382 2.47109 5.11167 -4.16382 
7 1 2 3.40868 5.26286 -3.954 3.40868 5.26286 -3.954 
8 1 2 2.92565 5.57462 -3.16486 2.92565 5.57462 -3.16486 
9 1 2 2.17246 5.72787 -2.62356 2.17246 5.72787 -2.62356 
10 1 2 2.38414 5.83155 -3.58581 2.38414 5.83155 -3.58581 
11 1 1 2.90915 5.01154 -3.40431 2.90915 5.01154 -3.40431 
12 1 1 3.10809 4.02523 -3.20976 3.10809 4.02523 -3.20976 
13 1 1 3.66462 4.742 -2.70103 3.66462 4.742 -2.70103 
14 1 1 4.39745 4.86889 -1.98526 4.39745 4.86889 -1.98526 
15 1 1 4.37163 5.60542 -1.45776 4.37163 5.60542 -1.45776 
16 1 1 3.43459 5.75125 -1.8088 3.43459 5.75125 -1.8088 
17 1 1 3.42205 6.59605 -2.25723 3.42205 6.59605 -2.25723 
18 1 1 2.17722 6.59202 -2.20935 2.17722 6.59202 -2.20935 
19 1 1 1.2358 6.44724 -2.16768 1.2358 6.44724 -2.16768 
20 1 1 1.197 6.89191 -1.31754 1.197 6.89191 -1.31754 
ITEM: TIMESTEP
500000
ITEM: NUMBER OF ATOMS
20
ITEM: BOX BOUNDS pp pp pp
-5.0000000000000000e+01 5.0000000000000000e+01
-5.0000000000000000e+01 5.0000000000000000e+01
-5.0000000000000000e+01 5.0000000000000000e+01
ITEM: ATOMS id mol type x y z xu yu zu 
1 1 2 8.71238 -3.91146 -5.4672 8.71238 -3.91146 -5.4672 
2 1 2 8.30579 -3.54388 -4.75278 8.30579 -3.54388 -4.75278 
3 1 2 7.2845 -3.23568 -5.01994 7.2845 -3.23568 -5.01994 
4 1 2 7.30006 -2.77585 -5.80704 7.30006 -2.77585 -5.80704 
5 1 2 7.89202 -2.22772 -6.52159 7.89202 -2.22772 -6.52159 
6 1 2 8.08435 -1.29919 -6.17602 8.08435 -1.29919 -6.17602 
7 1 2 8.46027 -0.750593 -5.52717 8.46027 -0.750593 -5.52717 
8 1 2 7.61835 -0.236194 -5.41711 7.61835 -0.236194 -5.41711 
9 1 2 7.68575 -0.287269 -6.51928 7.68575 -0.287269 -6.51928 
10 1 2 7.03335 -0.573681 -6.02343 7.03335 -0.573681 -6.02343 
11 1 1 6.84567 -0.255978 -5.07145 6.84567 -0.255978 -5.07145 
12 1 1 6.53208 0.544167 -4.70269 6.53208 0.544167 -4.70269 
13 1 1 6.86525 1.36282 -4.22559 6.86525 1.36282 -4.22559 
14 1 1 6.52039 2.30112 -4.17929 6.52039 2.30112 -4.17929 
15 1 1 6.78885 1.24066 -3.80768 6.78885 1.24066 -3.80768 
16 1 1 7.31197 1.33279 -2.92203 7.31197 1.33279 -2.92203 
17 1 1 6.39628 1.55617 -3.41933 6.39628 1.55617 -3.41933 
18 1 1 6.01433 2.13026 -2.60961 6.01433 2.13026 -2.60961 
19 1 1 5.90083 1.14824 -2.45212 5.90083 1.14824 -2.45212 
20 1 1 5.70092 0.389988 -1.88394 5.70092 0.389988 -1.88394 
ITEM: TIMESTEP
600000
ITEM: NUMBER OF ATOMS
20
ITEM: BOX BOUNDS pp pp pp
-5.0000000000000000e+01 5.0000000000000000e+01
-5.0000000000000000e+01 5.0000000000000000e+01
-5.0000000000000000e+01 5.0000000000000000e+01
ITEM: ATOMS id mol type x y z xu yu zu 
1 1 2 7.79011 -2.44061 3.59603 7.79011 -2.44061 3.59603 
2 1 2 7.74874 -1.92003 4.464 7.74874 -1.92003 4.464 
3 1 2 7.66151 -2.3712 3.7876 7.66151 -2.3712 3.7876 
4 1 2 8.46104 -2.93377 3.65214 8.46104 -2.93377 3.65214 
5 1 2 8.48169 -3.86344 3.32733 8.48169 -3.86344 3.32733 
6 1 2 8.16061 -3.33639 2.45871 8.16061 -3.33639 2.45871 
7 1 2 8.58726 -3.78463 3.30576 8.58726 -3.78463 3.30576 
8 1 2 8.25066 -4.59907 2.9584 8.25066 -4.59907 2.9584 
9 1 2 7.86955 -4.70841 1.97285 7.86955 -4.70841 1.97285 
10 1 2 7.37035 -4.67497 1.09153 7.37035 -4.67497 1.09153 
11 1 1 6.96904 -5.19006 0.52976 6.96904 -5.19006 0.52976 
12 1 1 7.27045 -6.05605 0.102832 7.27045 -6.05605 0.102832 
13 1 1 7.79529 -5.56289 0.856041 7.79529 -5.56289 0.856041 
14 1 1 7.27241 -6.16103 1.45846 7.27241 -6.16103 1.45846 
15 1 1 7.04286 -5.63958 0.564751 7.04286 -5.63958 0.564751 
16 1 1 6.52648 -5.44272 -0.272358 6.52648 -5.44272 -0.272358 
17 1 1 6.83643 -4.60339 -0.633894 6.83643 -4.60339 -0.633894 
18 1 1 7.17493 -4.86015 -1.53974 7.17493 -4.86015 -1.53974 
19 1 1 7.50779 -4.55966 -0.64965 7.50779 -4.55966 -0.64965 
20 1 1 7.67436 -5.52397 -0.4545 7.67436 -5.52397 -0.4545 
ITEM: TIMESTEP
700000
ITEM: NUMBER OF ATOMS
20
ITEM: BOX BOUNDS pp pp pp
-5.0000000000000000e+01 5.0000000000000000e+01
-5.0000000000000000e+01 5.0000000000000000e+01
-5.0000000000000000e+01 5.0000000000000000e+01
ITEM: ATOMS id mol type x y z xu yu zu 
1 1 2 9.85029 -4.47521 -0.0292465 9.85029 -4.47521 -0.0292465 
2 1 2 10.6729 -3.8739 -0.0132115 10.6729 -3.8739 -0.0132115 
3 1 2 11.4793 -3.93307 0.623715 11.4793 -3.93307 0.623715 
4 1 2 11.657 -5.00141 0.363526 11.657 -5.00141 0.363526 
5 1 2 11.3805 -5.36747 1.26069 11.3805 -5.36747 1.26069 
6 1 2 10.3376 -5.32743 1.45449 10.3376 -5.32743 1.45449 
7 1 2 10.4706 -5.2839 2.42168 10.4706 -5.2839 2.42168 
8 1 2 10.5955 -4.48961 2.82027 10.5955 -4.48961 2.82027 
9 1 2 10.2639 -4.77767 3.66645 10.2639 -4.77767 3.66645 
10 1 2 10.9999 -4.7163 4.22783 10.9999 -4.7163 4.22783 
11 1 1 11.1843 -3.75046 4.66193 11.1843 -3.75046 4.66193 
12 1 1 10.2136 -3.39493 4.95689 10.2136 -3.39493 4.95689 
13 1 1 9.40347 -3.90223 5.15986 9.40347 -3.90223 5.15986 
14 1 1 9.68667 -4.56167 4.62154 9.68667 -4.56167 4.62154 
15 1 1 9.76189 -5.60865 4.67201 9.76189 -5.60865 4.67201 
16 1 1 10.3873 -5.86972 5.29313 10.3873 -5.86972 5.29313 
17 1 1 10.8499 -4.89676 5.00327 10.8499 -4.89676 5.00327 
18 1 1 11.707 -5.44233 5.25764 11.707 -5.44233 5.25764 
19 1 1 11.9828 -4.64786 4.92195 11.9828 -4.64786 4.92195 
20 1 1 11.4275 -3.74563 4.43191 11.4275 -3.74563 4.43191 
ITEM: TIMESTEP
800000
ITEM: NUMBER OF ATOMS
20
ITEM: BOX BOUNDS pp pp pp
-5.0000000000000000e+01 5.0000000000000000e+01
-5.0000000000000000e+01 5.0000000000000000e+01
-5.0000000000000000e+01 5.0000000000000000e+01
ITEM: ATOMS id mol type x y z xu yu zu 
1 1 2 10.6338 -8.94187 7.11549 10.6338 -8.94187 7.11549 
2 1 2 10.6278 -9.02095 8.00303 10.6278 -9.02095 8.00303 
3 1 2 9.89558 -8.56173 7.41876 9.89558 -8.56173 7.41876 
4 1 2 9.61797 -9.48222 7.69233 9.61797 -9.48222 7.69233 
5 1 2 9.19869 -8.85773 8.30131 9.19869 -8.85773 8.30131 
6 1 2 10.2338 -8.52482 8.12563 10.2338 -8.52482 8.12563 
7 1 2 10.6392 -8.45378 9.0605 10.6392 -8.45378 9.0605 
8 1 2 11.2992 -7.82463 8.46012 11.2992 -7.82463 8.46012 
9 1 2 11.1917 -7.6463 7.43923 11.1917 -7.6463 7.43923 
10 1 2 11.4013 -8.35615 7.94482 11.4013 -8.35615 7.94482 
11 1 1 10.6918 -7.50179 8.0804 10.6918 -7.50179 8.0804 
12 1 1 11.6148 -7.25907 8.22759 11.6148 -7.25907 8.22759 
13 1 1 12.1838 -6.39351 8.38319 12.1838 -6.39351 8.38319 
14 1 1 11.8859 -7.05839 7.72959 11.8859 -7.05839 7.72959 
15 1 1 10.8907 -7.56358 7.49206 10.8907 -7.56358 7.49206 
16 1 1 11.866 -7.77491 7.96038 11.866 -7.77491 7.96038 
17 1 1 12.2605 -8.02474 7.11291 12.2605 -8.02474 7.11291 
18 1 1 11.2884 -7.96722 7.20007 11.2884 -7.96722 7.20007 
19 1 1 11.6078 -7.14942 6.72984 11.6078 -7.14942 6.72984 
20 1 1 11.0805 -6.24312 6.81095 11.0805 -6.24312 6.81095 
ITEM: TIMESTEP
900000
ITEM: NUMBER OF ATOMS
20
ITEM: BOX BOUNDS pp pp pp
-5.0000000000000000e+01 5.0000000000000000e+01
-5.0000000000000000e+01 5.0000000000000000e+01
-5.0000000000000000e+01 5.0000000000000000e+01
ITEM: ATOMS id mol type x y z xu yu zu 
1 1 2 16.2115 0.451852 14.7959 16.2115 0.451852 14.7959 
2 1 2 15.7668 -0.305851 15.1638 15.7668 -0.305851 15.1638 
3 1 2 15.5574 -0.649858 16.0146 15.5574 -0.649858 16.0146 
4 1 2 16.0729 -1.05108 15.5174 16.0729 -1.05108 15.5174 
5 1 2 15.2411 -1.60777 15.6801 15.2411 -1.60777 15.6801 
6 1 2 14.362 -1.02058 15.4268 14.362 -1.02058 15.4268 
7 1 2 14.1531 -1.888 14.8056 14.1531 -1.888 14.8056 
8 1 2 14.4221 -2.70594 15.5441 14.4221 -2.70594 15.5441 
9 1 2 13.9258 -1.66358 15.7669 13.9258 -1.66358 15.7669 
10 1 2 13.3937 -0.883599 16.2448 13.3937 -0.883599 16.2448 
11 1 1 12.8602 -0.160697 16.5476 12.8602 -0.160697 16.5476 
12 1 1 12.3012 0.735694 16.6932 12.3012 0.735694 16.6932 
13 1 1 11.3629 1.08216 16.6187 11.3629 1.08216 16.6187 
14 1 1 10.4806 0.782443 17.0198 10.4806 0.782443 17.0198 
15 1 1 9.8091 0.922437 17.6891 9.8091 0.922437 17.6891 
16 1 1 10.0903 1.58663 18.4603 10.0903 1.58663 18.4603 
17 1 1 10.9905 1.27253 18.6629 10.9905 1.27253 18.6629 
18 1 1 10.3775 1.90552 18.2247 10.3775 1.90552 18.2247 
19 1 1 9.48624 2.28422 17.829 9.48624 2.28422 17.829 
20 1 1 10.3465 2.36149 17.2872 10.3465 2.36149 17.2872 
ITEM: TIMESTEP
1000000
ITEM: NUMBER OF ATOMS
20
ITEM: BOX BOUNDS pp pp pp
-5.0000000000000000e+01 5.0000000000000000e+01
-5.0000000000000000e+01 5.0000000000000000e+01
-5.0000000000000000e+01 5.0000000000000000e+01
ITEM: ATOMS id mol type x y z xu yu zu 
1 1 2 11.9237 0.0930144 11.8775 11.9237 0.0930144 11.8775 
2 1 2 11.3032 -0.12796 12.6228 11.3032 -0.12796 12.6228 
3 1 2 10.8783 0.516234 12.1237 10.8783 0.516234 12.1237 
4 1 2 10.3209 0.344487 12.8697 10.3209 0.344487 12.8697 
5 1 2 10.8188 1.11468 12.3909 10.8188 1.11468 12.3909 
6 1 2 9.94895 1.09558 12.9492 9.94895 1.09558 12.9492 
7 1 2 10.9716 0.949414 12.7321 10.9716 0.949414 12.7321 
8 1 2 11.5885 1.18055 13.5576 11.5885 1.18055 13.5576 
9 1 2 12.4507 0.927847 13.0661 12.4507 0.927847 13.0661 
10 1 2 12.9738 1.44405 12.3853 12.9738 1.44405 12.3853 
11 1 1 12.2345 1.02512 11.8606 12.2345 1.02512 11.8606 
12 1 1 11.8762 0.208726 11.6072 11.8762 0.208726 11.6072 
13 1 1 12.3853 -0.504979 11.7521 12.3853 -0.504979 11.7521 
14 1 1 11.7471 0.207038 11.7125 11.7471 0.207038 11.7125 
15 1 1 12.5947 0.198079 11.2388 12.5947 0.198079 11.2388 
16 1 1 13.4849 0.0458596 10.7501 13.4849 0.0458596 10.7501 
17 1 1 13.3348 0.365958 11.5869 13.3348 0.365958 11.5869 
18 1 1 14.1444 0.172429 11.107 14.1444 0.172429 11.107 
19 1 1 13.9002 0.0739227 10.1305 13.9002 0.0739227 10.1305 
20 1 1 14.3101 0.854647 10.6904 14.3101 0.854647 10.6904 
ITEM: TIMESTEP
1100000
ITEM: NUMBER OF ATOMS
20
ITEM: BOX BOUNDS pp pp pp
-5.0000000000000000e+01 5.0000000000000000e+01
-5.0000000000000000e+01 5.0000000000000000e+01
-5.0000000000000000e+01 5.0000000000000000e+01
ITEM: ATOMS id mol type x y z xu yu zu 
1 1 2 12.0829 -2.49619 13.0912 12.0829 -2.49619 13.0912 
2 1 2 13.0612 -2.14485 13.3624 13.0612 -2.14485 13.3624 
3 1 2 12.8953 -1.87619 14.4204 12.8953 -1.87619 14.4204 
4 1 2 13.0414 -2.68843 14.9071 13.0414 -2.68843 14.9071 
5 1 2 12.9922 -1.74374 14.7232 12.9922 -1.74374 14.7232 
6 1 2 13.2279 -2.52574 15.3655 13.2279 -2.52574 15.3655 
7 1 2 12.5659 -1.76747 15.0464 12.5659 -1.76747 15.0464 
8 1 2 13.4743 -1.45873 15.5462 13.4743 -1.45873 15.5462 
9 1 2 14.2572 -0.904002 15.0041 14.2572 -0.904002 15.0041 
10 1 2 14.9023 -1.35759 15.6862 14.9023 -1.35759 15.6862 
11 1 1 14.5029 -0.442313 15.7118 14.5029 -0.442313 15.7118 
12 1 1 14.424 0.515939 15.5344 14.424 0.515939 15.5344 
13 1 1 15.0472 0.288194 16.2195 15.0472 0.288194 16.2195 
14 1 1 15.4775 -0.639297 16.2154 15.4775 -0.639297 16.2154 
15 1 1 15.419 -0.654219 15.3198 15.419 -0.654219 15.3198 
16 1 1 14.6185 -0.141315 15.3455 14.6185 -0.141315 15.3455 
17 1 1 14.7881 0.594288 15.8692 14.7881 0.594288 15.8692 
18 1 1 14.0167 0.972656 15.7169 14.0167 0.972656 15.7169 
19 1 1 13.4602 1.69698 15.427 13.4602 1.69698 15.427 
20 1 1 13.7735 1.98891 16.4159 13.7735 1.98891 16.4159 
ITEM: TIMESTEP
1200000
ITEM: NUMBER OF ATOMS
20
ITEM: BOX BOUNDS pp pp pp
-5.0000000000000000e+01 5.0000000000000000e+01
-5.0000000000000000e+01 5.0000000000000000e+01
-5.0000000000000000e+01 5.0000000000000000e+01
ITEM: ATOMS id mol type x y z xu yu zu 
1 1 2 13.1739 -2.77569 11.0191 13.1739 -2.77569 11.0191 
2 1 2 12.5076 -2.08333 11.5404 12.5076 -2.08333 11.5404 
3 1 2 12.4215 -2.29608 12.5419 12.4215 -2.29608 12.5419 
4 1 2 11.4127 -2.22568 12.784 11.4127 -2.22568 12.784 
5 1 2 11.3476 -2.48614 11.729 11.3476 -2.48614 11.729 
6 1 2 12.3312 -2.50086 11.2936 12.3312 -2.50086 11.2936 
7 1 2 12.9503 -1.8846 11.098 12.9503 -1.8846 11.098 
8 1 2 12.4954 -1.36597 12.0235 12.4954 -1.36597 12.0235 
9 1 2 12.5391 -1.22339 13.1193 12.5391 -1.22339 13.1193 
10 1 2 12.1415 -0.506219 13.8382 12.1415 -0.506219 13.8382 
11 1 1 13.052 -0.398981 14.0258 13.052 -0.398981 14.0258 
12 1 1 13.8836 -0.839739 14.4956 13.8836 -0.839739 14.4956 
13 1 1 13.1225 -0.4819 15.1778 13.1225 -0.4819 15.1778 
14 1 1 13.229 -0.879875 14.2062 13.229 -0.879875 14.2062 
15 1 1 13.692 -1.22731 13.4498 13.692 -1.22731 13.4498 
16 1 1 13.3229 -2.00946 13.0969 13.3229 -2.00946 13.0969 
17 1 1 13.3099 -2.36513 12.309 13.3099 -2.36513 12.309 
18 1 1 14.1519 -2.11304 12.9905 14.1519 -2.11304 12.9905 
19 1 1 13.3135 -1.65326 13.1269 13.3135 -1.65326 13.1269 
20 1 1 13.0402 -1.85331 14.1737 13.0402 -1.85331 14.1737 
ITEM: TIMESTEP
1300000
ITEM: NUMBER OF ATOMS
20
ITEM: BOX BOUNDS pp pp pp
-5.0000000000000000e+01 5.0000000000000000e+01
-5.0000000000000000e+01 5.0000000000000000e+01
-5.0000000000000000e+01 5.0000000000000000e+01
ITEM: ATOMS id mol type x y z xu yu zu 
1 1 2 13.4975 3.78853 7.71278 13.4975 3.78853 7.71278 
2 1 2 13.7349 4.16011 8.47671 13.7349 4.16011 8.47671 
3 1 2 13.5633 5.14627 8.77549 13.5633 5.14627 8.77549 
4 1 2 13.7773 5.08143 9.79041 13.7773 5.08143 9.79041 
5 1 2 12.9361 4.77953 10.3326 12.9361 4.77953 10.3326 
6 1 2 12.5423 3.87903 9.96951 12.5423 3.87903 9.96951 
7 1 2 11.8108 4.26146 9.40217 11.8108 4.26146 9.40217 
8 1 2 11.6844 4.37646 10.3314 11.6844 4.37646 10.3314 
9 1 2 12.0851 3.43994 10.3251 12.0851 3.43994 10.3251 
10 1 2 11.9834 4.36638 10.526 11.9834 4.36638 10.526 
11 1 1 12.9212 3.95672 10.1291 12.9212 3.95672 10.1291 
12 1 1 13.1914 3.12616 9.70763 13.1914 3.12616 9.70763 
13 1 1 13.9982 2.82272 10.3673 13.9982 2.82272 10.3673 
14 1 1 14.9329 3.15919 10.3088 14.9329 3.15919 10.3088 
15 1 1 14.2775 2.80657 9.64476 14.2775 2.80657 9.64476 
16 1 1 14.3626 3.15579 10.5302 14.3626 3.15579 10.5302 
17 1 1 13.555 2.58527 11.0746 13.555 2.58527 11.0746 
18 1 1 13.2075 3.29077 10.3976 13.2075 3.29077 10.3976 
19 1 1 13.6451 4.15032 10.5236 13.6451 4.15032 10.5236 
20 1 1 12.7865 3.85259 10.8742 12.7865 3.85259 10.8742 
ITEM: TIMESTEP
1400000
ITEM: NUMBER OF ATOMS
20
ITEM: BOX BOUNDS pp pp pp
-5.0000000000000000e+01 5.0000000000000000e+01
-5.0000000000000000e+01 5.0000000000000000e+01
-5.0000000000000000e+01 5.0000000000000000e+01
ITEM: ATOMS id mol type x y z xu yu zu 
1 1 2 9.39577 7.48034 7.43521 9.39577 7.48034 7.43521 
2 1 2 9.57757 8.04456 6.60668 9.57757 8.04456 6.60668 
3 1 2 8.84182 8.00014 5.82232 8.84182 8.00014 5.82232 
4 1 2 9.22031 7.25376 5.25191 9.22031 7.25376 5.25191 
5 1 2 9.58416 6.96903 6.25434 9.58416 6.96903 6.25434 
6 1 2 8.51706 7.06249 5.9628 8.51706 7.06249 5.9628 
7 1 2 8.08877 6.59522 6.72095 8.08877 6.59522 6.72095 
8 1 2 8.66576 6.06902 7.36341 8.66576 6.06902 7.36341 
9 1 2 9.6026 6.4637 7.34185 9.6026 6.4637 7.34185 
10 1 2 10.2067 7.0664 6.67463 10.2067 7.0664 6.67463 
11 1 1 10.0461 7.83244 7.15214 10.0461 7.83244 7.15214 
12 1 1 9.64929 8.45602 8.07908 9.64929 8.45602 8.07908 
13 1 1 10.6097 8.61263 7.92134 10.6097 8.61263 7.92134 
14 1 1 10.4074 7.58576 7.71217 10.4074 7.58576 7.71217 
15 1 1 9.64069 7.40231 7.23337 9.64069 7.40231 7.23337 
16 1 1 8.73317 6.88048 7.14471 8.73317 6.88048 7.14471 
17 1 1 9.62553 6.4068 7.56794 9.62553 6.4068 7.56794 
18 1 1 8.87159 6.6575 8.08932 8.87159 6.6575 8.08932 
19 1 1 8.81062 7.37118 7.28048 8.81062 7.37118 7.28048 
20 1 1 9.34776 7.10497 6.59982 9.34776 7.10497 6.59982 
ITEM: TIMESTEP
1500000
ITEM: NUMBER OF ATOMS
20
ITEM: BOX BOUNDS pp pp pp
-5.0000000000000000e+01 5.0000000000000000e+01
-5.0000000000000000e+01 5.0000000000000000e+01
-5.0000000000000000e+01 5.0000000000000000e+01
ITEM: ATOMS id mol type x y z xu yu zu 
1 1 2 9.58433 8.11384 5.61004 9.58433 8.11384 5.61004 
2 1 2 9.89215 7.5873 4.82983 9.89215 7.5873 4.82983 
3 1 2 10.0723 6.62527 4.79313 10.0723 6.62527 4.79313 
4 1 2 10.5105 6.19086 3.96324 10.5105 6.19086 3.96324 
5 1 2 10.1141 6.72777 4.65552 10.1141 6.72777 4.65552 
6 1 2 10.0598 6.31062 5.5798 10.0598 6.31062 5.5798 
7 1 2 9.32523 6.93616 5.38806 9.32523 6.93616 5.38806 
8 1 2 10.1102 7.2228 4.7152 10.1102 7.2228 4.7152 
9 1 2 9.95988 6.54299 5.41369 9.95988 6.54299 5.41369 
10 1 2 9.33127 6.46073 6.20065 9.33127 6.46073 6.20065 
11 1 1 9.06365 6.06856 5.34107 9.06365 6.06856 5.34107 
12 1 1 9.11012 5.52009 6.20297 9.11012 5.52009 6.20297 
13 1 1 8.23012 5.13691 6.1867 8.23012 5.13691 6.1867 
14 1 1 8.42877 4.55002 5.48374 8.42877 4.55002 5.48374 
15 1 1 8.22583 5.60256 5.33933 8.22583 5.60256 5.33933 
16 1 1 9.07366 5.05576 5.6442 9.07366 5.05576 5.6442 
17 1 1 8.89829 5.39608 6.61492 8.89829 5.39608 6.61492 
18 1 1 8.44621 4.56698 5.91229 8.44621 4.56698 5.91229 
19 1 1 8.73329 3.53736 6.04877 8.73329 3.53736 6.04877 
20 1 1 8.43094 4.14432 5.45159 8.43094 4.14432 5.45159 
ITEM: TIMESTEP
1600000
ITEM: NUMBER OF ATOMS
20
ITEM: BOX BOUNDS pp pp pp
-5.0000000000000000e+01 5.0000000000000000e+01
-5.0000000000000000e+01 5.0000000000000000e+01
-5.0000000000000000e+01 5.0000000000000000e+01
ITEM: ATOMS id mol type x y z xu yu zu 
1 1 2 12.4352 4.9741 11.6783 12.4352 4.9741 11.6783 
2 1 2 11.5654 4.67658 12.2288 11.5654 4.67658 12.2288 
3 1 2 11.0762 5.53325 12.3666 11.0762 5.53325 12.3666 
4 1 2 10.3336 4.946 12.767 10.3336 4.946 12.767 
5 1 2 9.77573 4.28028 12.2766 9.77573 4.28028 12.2766 
6 1 2 9.33985 4.42595 13.2105 9.33985 4.42595 13.2105 
7 1 2 9.04437 4.37141 14.1533 9.04437 4.37141 14.1533 
8 1 2 8.07655 4.61255 14.2893 8.07655 4.61255 14.2893 
9 1 2 7.16141 4.60639 14.1437 7.16141 4.60639 14.1437 
10 1 2 6.62164 3.84458 14.536 6.62164 3.84458 14.536 
11 1 1 6.80185 4.01856 13.613 6.80185 4.01856 13.613 
12 1 1 6.38147 4.49736 12.8999 6.38147 4.49736 12.8999 
13 1 1 7.35038 4.49724 12.7719 7.35038 4.49724 12.7719 
14 1 1 8.16598 4.21983 12.6578 8.16598 4.21983 12.6578 
15 1 1 7.57342 3.6467 12.015 7.57342 3.6467 12.015 
16 1 1 6.75964 3.34907 11.5874 6.75964 3.34907 11.5874 
17 1 1 7.73413 3.22948 11.3249 7.73413 3.22948 11.3249 
18 1 1 7.03287 2.47441 11.0758 7.03287 2.47441 11.0758 
19 1 1 6.88157 1.7257 11.6528 6.88157 1.7257 11.6528 
20 1 1 6.77427 2.03273 12.4983 6.77427 2.03273 12.4983 
ITEM: TIMESTEP
1700000
ITEM: NUMBER OF ATOMS
20
ITEM: BOX BOUNDS pp pp pp
-5.0000000000000000e+01 5.0000000000000000e+01
-5.0000000000000000e+01 5.0000000000000000e+01
-5.0000000000000000e+01 5.0000000000000000e+01
ITEM: ATOMS id mol type x y z xu yu zu 
1 1 2 6.60633 2.4363 10.5447 6.60633 2.4363 10.5447 
2 1 2 6.11565 3.0408 10.1796 6.11565 3.0408 10.1796 
3 1 2 6.97415 3.16776 10.7511 6.97415 3.16776 10.7511 
4 1 2 7.27273 2.40977 10.16 7.27273 2.40977 10.16 
5 1 2 6.45744 2.1136 9.72913 6.45744 2.1136 9.72913 
6 1 2 5.92718 2.24499 10.6104 5.92718 2.24499 10.6104 
7 1 2 6.1261 3.26586 10.5556 6.1261 3.26586 10.5556 
8 1 2 5.54877 2.7526 10.2052 5.54877 2.7526 10.2052 
9 1 2 4.55666 2.452 10.551 4.55666 2.452 10.551 
10 1 2 4.50082 1.36188 10.131 4.50082 1.36188 10.131 
11 1 1 4.95148 1.58677 9.141 4.95148 1.58677 9.141 
12 1 1 4.86097 0.685914 9.25423 4.86097 0.685914 9.25423 
13 1 1 5.20172 1.66874 9.12706 5.20172 1.66874 9.12706 
14 1 1 4.30516 1.58558 9.15375 4.30516 1.58558 9.15375 
15 1 1 3.34797 1.75624 9.45971 3.34797 1.75624 9.45971 
16 1 1 2.70192 0.827887 9.81577 2.70192 0.827887 9.81577 
17 1 1 3.39494 1.12981 10.537 3.39494 1.12981 10.537 
18 1 1 4.18903 1.01801 11.3194 4.18903 1.01801 11.3194 
19 1 1 4.90992 1.59422 10.8618 4.90992 1.59422 10.8618 
20 1 1 4.57762 2.0883 11.6863 4.57762 2.0883 11.6863 
ITEM: TIMESTEP
1800000
ITEM: NUMBER OF ATOMS
20
ITEM: BOX BOUNDS pp pp pp
-5.0000000000000000e+01 5.0000000000000000e+01
-5.0000000000000000e+01 5.0000000000000000e+01
-5.0000000000000000e+01 5.0000000000000000e+01
ITEM: ATOMS id mol type x y z xu yu zu 
1 1 2 7.67125 1.17684 10.3311 7.67125 1.17684 10.3311 
2 1 2 7.69956 1.88603 9.65642 7.69956 1.88603 9.65642 
3 1 2 6.80563 1.38454 9.38507 6.80563 1.38454 9.38507 
4 1 2 5.99067 0.952989 9.28126 5.99067 0.952989 9.28126 
5 1 2 6.35257 1.2662 10.1772 6.35257 1.2662 10.1772 
6 1 2 6.05958 0.843386 9.23145 6.05958 0.843386 9.23145 
7 1 2 6.96421 1.01947 9.61335 6.96421 1.01947 9.61335 
8 1 2 7.08158 0.0187009 9.24054 7.08158 0.0187009 9.24054 
9 1 2 6.08328 0.0174337 9.19505 6.08328 0.0174337 9.19505 
10 1 2 5.74846 -0.139484 10.1936 5.74846 -0.139484 10.1936 
11 1 1 6.70581 -0.740097 10.1183 6.70581 -0.740097 10.1183 
12 1 1 5.96328 -0.492113 10.7181 5.96328 -0.492113 10.7181 
13 1 1 6.04715 -1.12894 10.0203 6.04715 -1.12894 10.0203 
14 1 1 6.39208 -1.54124 9.17114 6.39208 -1.54124 9.17114 
15 1 1 5.57649 -1.01676 9.64279 5.57649 -1.01676 9.64279 
16 1 1 4.55752 -1.24123 9.63473 4.55752 -1.24123 9.63473 
17 1 1 5.38927 -0.942272 9.62011 5.38927 -0.942272 9.62011 
18 1 1 4.61224 -1.3566 9.8741 4.61224 -1.3566 9.8741 
19 1 1 3.88311 -1.57047 10.6178 3.88311 -1.57047 10.6178 
20 1 1 3.5166 -1.78 11.4723 3.5166 -1.78 11.4723 
ITEM: TIMESTEP
1900000
ITEM: NUMBER OF ATOMS
20
ITEM: BOX BOUNDS pp pp pp
-5.0000000000000000e+01 5.0000000000000000e+01
-5.0000000000000000e+01 5.0000000000000000e+01
-5.0000000000000000e+01 5.0000000000000000e+01
ITEM: ATOMS id mol type x y z xu yu zu 
1 1 2 7.86356 1.76421 13.2352 7.86356 1.76421 13.2352 
2 1 2 8.37222 1.51834 12.4916 8.37222 1.51834 12.4916 
3 1 2 9.34956 1.32679 12.4464 9.34956 1.32679 12.4464 
4 1 2 8.4396 1.01525 12.8826 8.4396 1.01525 12.8826 
5 1 2 7.82595 1.47724 12.1997 7.82595 1.47724 12.1997 
6 1 2 8.73355 1.93761 12.3619 8.73355 1.93761 12.3619 
7 1 2 8.05364 1.25931 12.1431 8.05364 1.25931 12.1431 
8 1 2 7.82018 1.94419 11.4472 7.82018 1.94419 11.4472 
9 1 2 7.66059 0.998073 11.3968 7.66059 0.998073 11.3968 
10 1 2 8.4311 0.268077 11.3405 8.4311 0.268077 11.3405 
11 1 1 8.32837 1.11159 12.098 8.32837 1.11159 12.098 
12 1 1 7.71237 0.40591 12.4047 7.71237 0.40591 12.4047 
13 1 1 8.05458 -0.47436 12.6988 8.05458 -0.47436 12.6988 
14 1 1 8.7672 0.203368 12.9591 8.7672 0.203368 12.9591 
15 1 1 8.43779 -0.163861 13.7334 8.43779 -0.163861 13.7334 
16 1 1 8.59212 -0.433724 14.7314 8.59212 -0.433724 14.7314 
17 1 1 7.79261 -0.766723 14.3029 7.79261 -0.766723 14.3029 
18 1 1 7.52498 0.191146 14.4447 7.52498 0.191146 14.4447 
19 1 1 7.98506 0.731729 13.5511 7.98506 0.731729 13.5511 
20 1 1 7.78182 -0.217287 13.1761 7.78182 -0.217287 13.1761 
ITEM: TIMESTEP
2000000
ITEM: NUMBER OF ATOMS
20
ITEM: BOX BOUNDS pp pp pp
-5.0000000000000000e+01 5.0000000000000000e+01
-5.0000000000000000e+01 5.0000000000000000e+01
-5.0000000000000000e+01 5.0000000000000000e+01
ITEM: ATOMS id mol type x y z xu yu zu 
1 1 2 8.27447 3.43605 10.5314 8.27447 3.43605 10.5314 
2 1 2 9.03423 2.71087 10.4602 9.03423 2.71087 10.4602 
3 1 2 8.3755 3.35293 9.94532 8.3755 3.35293 9.94532 
4 1 2 9.18414 3.43393 9.56913 9.18414 3.43393 9.56913 
5 1 2 9.76112 3.5906 10.3842 9.76112 3.5906 10.3842 
6 1 2 9.35174 3.07224 9.70044 9.35174 3.07224 9.70044 
7 1 2 8.74201 2.36399 9.90005 8.74201 2.36399 9.90005 
8 1 2 8.84522 1.52078 9.35898 8.84522 1.52078 9.35898 
9 1 2 8.48368 0.636597 9.28728 8.48368 0.636597 9.28728 
10 1 2 9.18617 0.635457 10.1771 9.18617 0.635457 10.1771 
11 1 1 8.97312 1.072 10.9565 8.97312 1.072 10.9565 
12 1 1 8.09836 1.11029 10.3228 8.09836 1.11029 10.3228 
13 1 1 7.18673 0.942393 10.7759 7.18673 0.942393 10.7759 
14 1 1 7.4862 1.70209 11.0747 7.4862 1.70209 11.0747 
15 1 1 6.69303 1.00182 10.664 6.69303 1.00182 10.664 
16 1 1 7.42353 0.944997 9.91558 7.42353 0.944997 9.91558 
17 1 1 7.09638 1.98171 9.75121 7.09638 1.98171 9.75121 
18 1 1 6.5761 1.43757 9.09945 6.5761 1.43757 9.09945 
19 1 1 6.77168 0.84691 9.80007 6.77168 0.84691 9.80007 
20 1 1 6.08508 0.168599 9.63056 6.08508 0.168599 9.63056 
ITEM: TIMESTEP
2100000
ITEM: NUMBER OF ATOMS
20
ITEM: BOX BOUNDS pp pp pp
-5.0000000000000000e+01 5.0000000000000000e+01
-5.0000000000000000e+01 5.0000000000000000e+01
-5.0000000000000000e+01 5.0000000000000000e+01
ITEM: ATOMS id mol type x y z xu yu zu 
1 1 2 2.94458 2.8343 8.82565 2.94458 2.8343 8.82565 
2 1 2 3.36162 3.57617 9.01535 3.36162 3.57617 9.01535 
3 1 2 3.72041 4.4943 9.03551 3.72041 4.4943 9.03551 
4 1 2 3.63891 3.50347 8.753 3.63891 3.50347 8.753 
5 1 2 2.81484 3.68825 8.03372 2.81484 3.68825 8.03372 
6 1 2 3.35846 3.31961 7.29012 3.35846 3.31961 7.29012 
7 1 2 4.01383 2.8997 6.64429 4.01383 2.8997 6.64429 
8 1 2 4.53834 3.48884 7.32132 4.53834 3.48884 7.32132 
9 1 2 5.02512 3.86827 8.14304 5.02512 3.86827 8.14304 
10 1 2 5.49568 3.43497 7.33565 5.49568 3.43497 7.33565 
11 1 1 4.98102 3.43969 8.03275 4.98102 3.43969 8.03275 
12 1 1 4.23473 4.05495 8.29643 4.23473 4.05495 8.29643 
13 1 1 3.7348 3.03939 8.2332 3.7348 3.03939 8.2332 
14 1 1 3.71541 1.98098 8.2349 3.71541 1.98098 8.2349 
15 1 1 2.91966 1.82522 7.86149 2.91966 1.82522 7.86149 
16 1 1 3.87167 1.40499 7.52199 3.87167 1.40499 7.52199 
17 1 1 3.99671 0.788446 6.73813 3.99671 0.788446 6.73813 
18 1 1 3.72745 1.7402 6.63451 3.72745 1.7402 6.63451 
19 1 1 3.26001 1.85083 7.50488 3.26001 1.85083 7.50488 
20 1 1 4.27009 2.01844 7.8036 4.27009 2.01844 7.8036 
ITEM: TIMESTEP
2200000
ITEM: NUMBER OF ATOMS
20
ITEM: BOX BOUNDS pp pp pp
-5.0000000000000000e+01 5.0000000000000000e+01
-5.0000000000000000e+01 5.0000000000000000e+01
-5.0000000000000000e+01 5.0000000000000000e+01
ITEM: ATOMS id mol type x y z xu yu zu 
1 1 2 1.77421 -0.517921 12.6088 1.77421 -0.517921 12.6088 
2 1 2 1.73972 0.437216 12.3782 1.73972 0.437216 12.3782 
3 1 2 1.95925 1.15971 11.7273 1.95925 1.15971 11.7273 
4 1 2 1.30651 1.27911 10.8339 1.30651 1.27911 10.8339 
5 1 2 1.54307 0.809115 11.6502 1.54307 0.809115 11.6502 
6 1 2 1.56269 -0.342297 11.3868 1.56269 -0.342297 11.3868 
7 1 2 1.77302 0.646242 11.4142 1.77302 0.646242 11.4142 
8 1 2 2.61158 0.122127 11.1073 2.61158 0.122127 11.1073 